+ 10 3 1 tcp 40 ------- 0 0.3.0.0 1.0.1.0 0 3
- 10 3 1 tcp 40 ------- 0 0.3.0.0 1.0.1.0 0 3
+ 10 3 1 tcp 1050 ------- 0 0.3.0.0 1.0.1.0 1 4
- 10 3 1 tcp 1050 ------- 0 0.3.0.0 1.0.1.0 1 4
r 10.04 3 1 tcp 40 ------- 0 0.3.0.0 1.0.1.0 0 3
+ 10.04 1 0 tcp 40 ------- 0 0.3.0.0 1.0.1.0 0 3
- 10.04 1 0 tcp 40 ------- 0 0.3.0.0 1.0.1.0 0 3
r 10.040009 3 1 tcp 1050 ------- 0 0.3.0.0 1.0.1.0 1 4
+ 10.040009 1 0 tcp 1050 ------- 0 0.3.0.0 1.0.1.0 1 4
- 10.042134 1 0 tcp 1050 ------- 0 0.3.0.0 1.0.1.0 1 4
r 10.182134 1 0 tcp 40 ------- 0 0.3.0.0 1.0.1.0 0 3
+ 10.182134 0 4 tcp 40 ------- 0 0.3.0.0 1.0.1.0 0 3
- 10.182134 0 4 tcp 40 ------- 0 0.3.0.0 1.0.1.0 0 3
r 10.182237 0 4 tcp 40 ------- 0 0.3.0.0 1.0.1.0 0 3
r 10.182935874 _5_ AGT  --- 3 tcp 40 [3c 1 0 0] ------- [6144:0 4194305:0 28 4194305] [0 0] 1 0
s 10.182935874 _5_ AGT  --- 5 ack 40 [0 0 0 0] ------- [4194305:0 6144:0 32 0] [0 0] 0 0
+ 10.183183 4 0 ack 60 ------- 0 1.0.1.0 0.3.0.0 0 5
- 10.183183 4 0 ack 60 ------- 0 1.0.1.0 0.3.0.0 0 5
r 10.183288 4 0 ack 60 ------- 0 1.0.1.0 0.3.0.0 0 5
+ 10.183288 0 1 ack 60 ------- 0 1.0.1.0 0.3.0.0 0 5
- 10.183288 0 1 ack 60 ------- 0 1.0.1.0 0.3.0.0 0 5
r 10.238134 1 0 tcp 1050 ------- 0 0.3.0.0 1.0.1.0 1 4
+ 10.238134 0 4 tcp 1050 ------- 0 0.3.0.0 1.0.1.0 1 4
- 10.238134 0 4 tcp 1050 ------- 0 0.3.0.0 1.0.1.0 1 4
r 10.238318 0 4 tcp 1050 ------- 0 0.3.0.0 1.0.1.0 1 4
r 10.239831669 _5_ AGT  --- 4 tcp 1050 [3c 1 0 0] ------- [6144:0 4194305:0 28 4194305] [1 0] 1 0
s 10.239831669 _5_ AGT  --- 6 ack 40 [0 0 0 0] ------- [4194305:0 6144:0 32 0] [1 0] 0 0
+ 10.240178 4 0 ack 60 ------- 0 1.0.1.0 0.3.0.0 1 6
- 10.240178 4 0 ack 60 ------- 0 1.0.1.0 0.3.0.0 1 6
r 10.240282 4 0 ack 60 ------- 0 1.0.1.0 0.3.0.0 1 6
+ 10.240282 0 1 ack 60 ------- 0 1.0.1.0 0.3.0.0 1 6
- 10.240282 0 1 ack 60 ------- 0 1.0.1.0 0.3.0.0 1 6
r 10.332888 0 1 ack 60 ------- 0 1.0.1.0 0.3.0.0 0 5
+ 10.332888 1 3 ack 60 ------- 0 1.0.1.0 0.3.0.0 0 5
- 10.332888 1 3 ack 60 ------- 0 1.0.1.0 0.3.0.0 0 5
r 10.372888 1 3 ack 60 ------- 0 1.0.1.0 0.3.0.0 0 5
+ 10.372888 3 1 tcp 1050 ------- 0 0.3.0.0 1.0.1.0 2 7
- 10.372888 3 1 tcp 1050 ------- 0 0.3.0.0 1.0.1.0 2 7
+ 10.372888 3 1 tcp 1050 ------- 0 0.3.0.0 1.0.1.0 3 8
- 10.372897 3 1 tcp 1050 ------- 0 0.3.0.0 1.0.1.0 3 8
r 10.389882 0 1 ack 60 ------- 0 1.0.1.0 0.3.0.0 1 6
+ 10.389882 1 3 ack 60 ------- 0 1.0.1.0 0.3.0.0 1 6
- 10.389882 1 3 ack 60 ------- 0 1.0.1.0 0.3.0.0 1 6
r 10.412897 3 1 tcp 1050 ------- 0 0.3.0.0 1.0.1.0 2 7
+ 10.412897 1 0 tcp 1050 ------- 0 0.3.0.0 1.0.1.0 2 7
- 10.412897 1 0 tcp 1050 ------- 0 0.3.0.0 1.0.1.0 2 7
r 10.412906 3 1 tcp 1050 ------- 0 0.3.0.0 1.0.1.0 3 8
+ 10.412906 1 0 tcp 1050 ------- 0 0.3.0.0 1.0.1.0 3 8
r 10.429883 1 3 ack 60 ------- 0 1.0.1.0 0.3.0.0 1 6
+ 10.429883 3 1 tcp 1050 ------- 0 0.3.0.0 1.0.1.0 4 9
- 10.429883 3 1 tcp 1050 ------- 0 0.3.0.0 1.0.1.0 4 9
+ 10.429883 3 1 tcp 1050 ------- 0 0.3.0.0 1.0.1.0 5 10
- 10.429892 3 1 tcp 1050 ------- 0 0.3.0.0 1.0.1.0 5 10
- 10.468897 1 0 tcp 1050 ------- 0 0.3.0.0 1.0.1.0 3 8
r 10.469892 3 1 tcp 1050 ------- 0 0.3.0.0 1.0.1.0 4 9
+ 10.469892 1 0 tcp 1050 ------- 0 0.3.0.0 1.0.1.0 4 9
r 10.4699 3 1 tcp 1050 ------- 0 0.3.0.0 1.0.1.0 5 10
+ 10.4699 1 0 tcp 1050 ------- 0 0.3.0.0 1.0.1.0 5 10
- 10.524897 1 0 tcp 1050 ------- 0 0.3.0.0 1.0.1.0 4 9
- 10.580897 1 0 tcp 1050 ------- 0 0.3.0.0 1.0.1.0 5 10
r 10.608897 1 0 tcp 1050 ------- 0 0.3.0.0 1.0.1.0 2 7
+ 10.608897 0 4 tcp 1050 ------- 0 0.3.0.0 1.0.1.0 2 7
- 10.608897 0 4 tcp 1050 ------- 0 0.3.0.0 1.0.1.0 2 7
r 10.609081 0 4 tcp 1050 ------- 0 0.3.0.0 1.0.1.0 2 7
r 10.610594928 _5_ AGT  --- 7 tcp 1050 [3c 1 0 0] ------- [6144:0 4194305:0 28 4194305] [2 0] 1 0
s 10.610594928 _5_ AGT  --- 11 ack 40 [0 0 0 0] ------- [4194305:0 6144:0 32 0] [2 0] 0 0
+ 10.610968 4 0 ack 60 ------- 0 1.0.1.0 0.3.0.0 2 11
- 10.610968 4 0 ack 60 ------- 0 1.0.1.0 0.3.0.0 2 11
r 10.611073 4 0 ack 60 ------- 0 1.0.1.0 0.3.0.0 2 11
+ 10.611073 0 1 ack 60 ------- 0 1.0.1.0 0.3.0.0 2 11
- 10.611073 0 1 ack 60 ------- 0 1.0.1.0 0.3.0.0 2 11
r 10.664897 1 0 tcp 1050 ------- 0 0.3.0.0 1.0.1.0 3 8
+ 10.664897 0 4 tcp 1050 ------- 0 0.3.0.0 1.0.1.0 3 8
- 10.664897 0 4 tcp 1050 ------- 0 0.3.0.0 1.0.1.0 3 8
r 10.665081 0 4 tcp 1050 ------- 0 0.3.0.0 1.0.1.0 3 8
r 10.666594928 _5_ AGT  --- 8 tcp 1050 [3c 1 0 0] ------- [6144:0 4194305:0 28 4194305] [3 0] 1 0
s 10.666594928 _5_ AGT  --- 12 ack 40 [0 0 0 0] ------- [4194305:0 6144:0 32 0] [3 0] 0 0
+ 10.666932 4 0 ack 60 ------- 0 1.0.1.0 0.3.0.0 3 12
- 10.666932 4 0 ack 60 ------- 0 1.0.1.0 0.3.0.0 3 12
r 10.667037 4 0 ack 60 ------- 0 1.0.1.0 0.3.0.0 3 12
+ 10.667037 0 1 ack 60 ------- 0 1.0.1.0 0.3.0.0 3 12
- 10.667037 0 1 ack 60 ------- 0 1.0.1.0 0.3.0.0 3 12
r 10.720897 1 0 tcp 1050 ------- 0 0.3.0.0 1.0.1.0 4 9
+ 10.720897 0 4 tcp 1050 ------- 0 0.3.0.0 1.0.1.0 4 9
- 10.720897 0 4 tcp 1050 ------- 0 0.3.0.0 1.0.1.0 4 9
r 10.721081 0 4 tcp 1050 ------- 0 0.3.0.0 1.0.1.0 4 9
r 10.722594928 _5_ AGT  --- 9 tcp 1050 [3c 1 0 0] ------- [6144:0 4194305:0 28 4194305] [4 0] 1 0
s 10.722594928 _5_ AGT  --- 13 ack 40 [0 0 0 0] ------- [4194305:0 6144:0 32 0] [4 0] 0 0
+ 10.722833 4 0 ack 60 ------- 0 1.0.1.0 0.3.0.0 4 13
- 10.722833 4 0 ack 60 ------- 0 1.0.1.0 0.3.0.0 4 13
r 10.722938 4 0 ack 60 ------- 0 1.0.1.0 0.3.0.0 4 13
+ 10.722938 0 1 ack 60 ------- 0 1.0.1.0 0.3.0.0 4 13
- 10.722938 0 1 ack 60 ------- 0 1.0.1.0 0.3.0.0 4 13
r 10.760673 0 1 ack 60 ------- 0 1.0.1.0 0.3.0.0 2 11
+ 10.760673 1 3 ack 60 ------- 0 1.0.1.0 0.3.0.0 2 11
- 10.760673 1 3 ack 60 ------- 0 1.0.1.0 0.3.0.0 2 11
r 10.776897 1 0 tcp 1050 ------- 0 0.3.0.0 1.0.1.0 5 10
+ 10.776897 0 4 tcp 1050 ------- 0 0.3.0.0 1.0.1.0 5 10
- 10.776897 0 4 tcp 1050 ------- 0 0.3.0.0 1.0.1.0 5 10
r 10.777081 0 4 tcp 1050 ------- 0 0.3.0.0 1.0.1.0 5 10
r 10.778594928 _5_ AGT  --- 10 tcp 1050 [3c 1 0 0] ------- [6144:0 4194305:0 28 4194305] [5 0] 1 0
s 10.778594928 _5_ AGT  --- 14 ack 40 [0 0 0 0] ------- [4194305:0 6144:0 32 0] [5 0] 0 0
+ 10.77886 4 0 ack 60 ------- 0 1.0.1.0 0.3.0.0 5 14
- 10.77886 4 0 ack 60 ------- 0 1.0.1.0 0.3.0.0 5 14
r 10.778965 4 0 ack 60 ------- 0 1.0.1.0 0.3.0.0 5 14
+ 10.778965 0 1 ack 60 ------- 0 1.0.1.0 0.3.0.0 5 14
- 10.778965 0 1 ack 60 ------- 0 1.0.1.0 0.3.0.0 5 14
r 10.800673 1 3 ack 60 ------- 0 1.0.1.0 0.3.0.0 2 11
+ 10.800673 3 1 tcp 1050 ------- 0 0.3.0.0 1.0.1.0 6 15
- 10.800673 3 1 tcp 1050 ------- 0 0.3.0.0 1.0.1.0 6 15
+ 10.800673 3 1 tcp 1050 ------- 0 0.3.0.0 1.0.1.0 7 16
- 10.800682 3 1 tcp 1050 ------- 0 0.3.0.0 1.0.1.0 7 16
r 10.816637 0 1 ack 60 ------- 0 1.0.1.0 0.3.0.0 3 12
+ 10.816637 1 3 ack 60 ------- 0 1.0.1.0 0.3.0.0 3 12
- 10.816637 1 3 ack 60 ------- 0 1.0.1.0 0.3.0.0 3 12
r 10.840682 3 1 tcp 1050 ------- 0 0.3.0.0 1.0.1.0 6 15
+ 10.840682 1 0 tcp 1050 ------- 0 0.3.0.0 1.0.1.0 6 15
- 10.840682 1 0 tcp 1050 ------- 0 0.3.0.0 1.0.1.0 6 15
r 10.840691 3 1 tcp 1050 ------- 0 0.3.0.0 1.0.1.0 7 16
+ 10.840691 1 0 tcp 1050 ------- 0 0.3.0.0 1.0.1.0 7 16
r 10.856637 1 3 ack 60 ------- 0 1.0.1.0 0.3.0.0 3 12
+ 10.856637 3 1 tcp 1050 ------- 0 0.3.0.0 1.0.1.0 8 17
- 10.856637 3 1 tcp 1050 ------- 0 0.3.0.0 1.0.1.0 8 17
+ 10.856637 3 1 tcp 1050 ------- 0 0.3.0.0 1.0.1.0 9 18
- 10.856646 3 1 tcp 1050 ------- 0 0.3.0.0 1.0.1.0 9 18
r 10.872538 0 1 ack 60 ------- 0 1.0.1.0 0.3.0.0 4 13
+ 10.872538 1 3 ack 60 ------- 0 1.0.1.0 0.3.0.0 4 13
- 10.872538 1 3 ack 60 ------- 0 1.0.1.0 0.3.0.0 4 13
r 10.896646 3 1 tcp 1050 ------- 0 0.3.0.0 1.0.1.0 8 17
+ 10.896646 1 0 tcp 1050 ------- 0 0.3.0.0 1.0.1.0 8 17
r 10.896655 3 1 tcp 1050 ------- 0 0.3.0.0 1.0.1.0 9 18
+ 10.896655 1 0 tcp 1050 ------- 0 0.3.0.0 1.0.1.0 9 18
- 10.896682 1 0 tcp 1050 ------- 0 0.3.0.0 1.0.1.0 7 16
r 10.912538 1 3 ack 60 ------- 0 1.0.1.0 0.3.0.0 4 13
+ 10.912538 3 1 tcp 1050 ------- 0 0.3.0.0 1.0.1.0 10 19
- 10.912538 3 1 tcp 1050 ------- 0 0.3.0.0 1.0.1.0 10 19
+ 10.912538 3 1 tcp 1050 ------- 0 0.3.0.0 1.0.1.0 11 20
- 10.912547 3 1 tcp 1050 ------- 0 0.3.0.0 1.0.1.0 11 20
r 10.928565 0 1 ack 60 ------- 0 1.0.1.0 0.3.0.0 5 14
+ 10.928565 1 3 ack 60 ------- 0 1.0.1.0 0.3.0.0 5 14
- 10.928565 1 3 ack 60 ------- 0 1.0.1.0 0.3.0.0 5 14
r 10.952547 3 1 tcp 1050 ------- 0 0.3.0.0 1.0.1.0 10 19
+ 10.952547 1 0 tcp 1050 ------- 0 0.3.0.0 1.0.1.0 10 19
r 10.952556 3 1 tcp 1050 ------- 0 0.3.0.0 1.0.1.0 11 20
+ 10.952556 1 0 tcp 1050 ------- 0 0.3.0.0 1.0.1.0 11 20
- 10.952682 1 0 tcp 1050 ------- 0 0.3.0.0 1.0.1.0 8 17
r 10.968565 1 3 ack 60 ------- 0 1.0.1.0 0.3.0.0 5 14
+ 10.968565 3 1 tcp 1050 ------- 0 0.3.0.0 1.0.1.0 12 21
- 10.968565 3 1 tcp 1050 ------- 0 0.3.0.0 1.0.1.0 12 21
+ 10.968565 3 1 tcp 1050 ------- 0 0.3.0.0 1.0.1.0 13 22
- 10.968574 3 1 tcp 1050 ------- 0 0.3.0.0 1.0.1.0 13 22
r 11.008574 3 1 tcp 1050 ------- 0 0.3.0.0 1.0.1.0 12 21
+ 11.008574 1 0 tcp 1050 ------- 0 0.3.0.0 1.0.1.0 12 21
r 11.008583 3 1 tcp 1050 ------- 0 0.3.0.0 1.0.1.0 13 22
+ 11.008583 1 0 tcp 1050 ------- 0 0.3.0.0 1.0.1.0 13 22
- 11.008682 1 0 tcp 1050 ------- 0 0.3.0.0 1.0.1.0 9 18
r 11.036682 1 0 tcp 1050 ------- 0 0.3.0.0 1.0.1.0 6 15
+ 11.036682 0 4 tcp 1050 ------- 0 0.3.0.0 1.0.1.0 6 15
- 11.036682 0 4 tcp 1050 ------- 0 0.3.0.0 1.0.1.0 6 15
r 11.036866 0 4 tcp 1050 ------- 0 0.3.0.0 1.0.1.0 6 15
r 11.038379983 _5_ AGT  --- 15 tcp 1050 [3c 1 0 0] ------- [6144:0 4194305:0 28 4194305] [6 0] 1 0
s 11.038379983 _5_ AGT  --- 23 ack 40 [0 0 0 0] ------- [4194305:0 6144:0 32 0] [6 0] 0 0
+ 11.038681 4 0 ack 60 ------- 0 1.0.1.0 0.3.0.0 6 23
- 11.038681 4 0 ack 60 ------- 0 1.0.1.0 0.3.0.0 6 23
r 11.038786 4 0 ack 60 ------- 0 1.0.1.0 0.3.0.0 6 23
+ 11.038786 0 1 ack 60 ------- 0 1.0.1.0 0.3.0.0 6 23
- 11.038786 0 1 ack 60 ------- 0 1.0.1.0 0.3.0.0 6 23
- 11.064682 1 0 tcp 1050 ------- 0 0.3.0.0 1.0.1.0 10 19
r 11.092682 1 0 tcp 1050 ------- 0 0.3.0.0 1.0.1.0 7 16
+ 11.092682 0 4 tcp 1050 ------- 0 0.3.0.0 1.0.1.0 7 16
- 11.092682 0 4 tcp 1050 ------- 0 0.3.0.0 1.0.1.0 7 16
r 11.092866 0 4 tcp 1050 ------- 0 0.3.0.0 1.0.1.0 7 16
r 11.094379983 _5_ AGT  --- 16 tcp 1050 [3c 1 0 0] ------- [6144:0 4194305:0 28 4194305] [7 0] 1 0
s 11.094379983 _5_ AGT  --- 24 ack 40 [0 0 0 0] ------- [4194305:0 6144:0 32 0] [7 0] 0 0
+ 11.094681 4 0 ack 60 ------- 0 1.0.1.0 0.3.0.0 7 24
- 11.094681 4 0 ack 60 ------- 0 1.0.1.0 0.3.0.0 7 24
r 11.094786 4 0 ack 60 ------- 0 1.0.1.0 0.3.0.0 7 24
+ 11.094786 0 1 ack 60 ------- 0 1.0.1.0 0.3.0.0 7 24
- 11.094786 0 1 ack 60 ------- 0 1.0.1.0 0.3.0.0 7 24
- 11.120682 1 0 tcp 1050 ------- 0 0.3.0.0 1.0.1.0 11 20
r 11.148682 1 0 tcp 1050 ------- 0 0.3.0.0 1.0.1.0 8 17
+ 11.148682 0 4 tcp 1050 ------- 0 0.3.0.0 1.0.1.0 8 17
- 11.148682 0 4 tcp 1050 ------- 0 0.3.0.0 1.0.1.0 8 17
r 11.148866 0 4 tcp 1050 ------- 0 0.3.0.0 1.0.1.0 8 17
r 11.150379983 _5_ AGT  --- 17 tcp 1050 [3c 1 0 0] ------- [6144:0 4194305:0 28 4194305] [8 0] 1 0
s 11.150379983 _5_ AGT  --- 25 ack 40 [0 0 0 0] ------- [4194305:0 6144:0 32 0] [8 0] 0 0
+ 11.15069 4 0 ack 60 ------- 0 1.0.1.0 0.3.0.0 8 25
- 11.15069 4 0 ack 60 ------- 0 1.0.1.0 0.3.0.0 8 25
r 11.150795 4 0 ack 60 ------- 0 1.0.1.0 0.3.0.0 8 25
+ 11.150795 0 1 ack 60 ------- 0 1.0.1.0 0.3.0.0 8 25
- 11.150795 0 1 ack 60 ------- 0 1.0.1.0 0.3.0.0 8 25
- 11.176682 1 0 tcp 1050 ------- 0 0.3.0.0 1.0.1.0 12 21
r 11.188386 0 1 ack 60 ------- 0 1.0.1.0 0.3.0.0 6 23
+ 11.188386 1 3 ack 60 ------- 0 1.0.1.0 0.3.0.0 6 23
- 11.188386 1 3 ack 60 ------- 0 1.0.1.0 0.3.0.0 6 23
r 11.204682 1 0 tcp 1050 ------- 0 0.3.0.0 1.0.1.0 9 18
+ 11.204682 0 4 tcp 1050 ------- 0 0.3.0.0 1.0.1.0 9 18
- 11.204682 0 4 tcp 1050 ------- 0 0.3.0.0 1.0.1.0 9 18
r 11.204866 0 4 tcp 1050 ------- 0 0.3.0.0 1.0.1.0 9 18
r 11.206379983 _5_ AGT  --- 18 tcp 1050 [3c 1 0 0] ------- [6144:0 4194305:0 28 4194305] [9 0] 1 0
s 11.206379983 _5_ AGT  --- 26 ack 40 [0 0 0 0] ------- [4194305:0 6144:0 32 0] [9 0] 0 0
+ 11.206708 4 0 ack 60 ------- 0 1.0.1.0 0.3.0.0 9 26
- 11.206708 4 0 ack 60 ------- 0 1.0.1.0 0.3.0.0 9 26
r 11.206813 4 0 ack 60 ------- 0 1.0.1.0 0.3.0.0 9 26
+ 11.206813 0 1 ack 60 ------- 0 1.0.1.0 0.3.0.0 9 26
- 11.206813 0 1 ack 60 ------- 0 1.0.1.0 0.3.0.0 9 26
r 11.228386 1 3 ack 60 ------- 0 1.0.1.0 0.3.0.0 6 23
+ 11.228386 3 1 tcp 1050 ------- 0 0.3.0.0 1.0.1.0 14 27
- 11.228386 3 1 tcp 1050 ------- 0 0.3.0.0 1.0.1.0 14 27
+ 11.228386 3 1 tcp 1050 ------- 0 0.3.0.0 1.0.1.0 15 28
- 11.228395 3 1 tcp 1050 ------- 0 0.3.0.0 1.0.1.0 15 28
- 11.232682 1 0 tcp 1050 ------- 0 0.3.0.0 1.0.1.0 13 22
r 11.244386 0 1 ack 60 ------- 0 1.0.1.0 0.3.0.0 7 24
+ 11.244386 1 3 ack 60 ------- 0 1.0.1.0 0.3.0.0 7 24
- 11.244386 1 3 ack 60 ------- 0 1.0.1.0 0.3.0.0 7 24
r 11.260682 1 0 tcp 1050 ------- 0 0.3.0.0 1.0.1.0 10 19
+ 11.260682 0 4 tcp 1050 ------- 0 0.3.0.0 1.0.1.0 10 19
- 11.260682 0 4 tcp 1050 ------- 0 0.3.0.0 1.0.1.0 10 19
r 11.260866 0 4 tcp 1050 ------- 0 0.3.0.0 1.0.1.0 10 19
r 11.262379983 _5_ AGT  --- 19 tcp 1050 [3c 1 0 0] ------- [6144:0 4194305:0 28 4194305] [10 0] 1 0
s 11.262379983 _5_ AGT  --- 29 ack 40 [0 0 0 0] ------- [4194305:0 6144:0 32 0] [10 0] 0 0
+ 11.262717 4 0 ack 60 ------- 0 1.0.1.0 0.3.0.0 10 29
- 11.262717 4 0 ack 60 ------- 0 1.0.1.0 0.3.0.0 10 29
r 11.262822 4 0 ack 60 ------- 0 1.0.1.0 0.3.0.0 10 29
+ 11.262822 0 1 ack 60 ------- 0 1.0.1.0 0.3.0.0 10 29
- 11.262822 0 1 ack 60 ------- 0 1.0.1.0 0.3.0.0 10 29
r 11.268395 3 1 tcp 1050 ------- 0 0.3.0.0 1.0.1.0 14 27
+ 11.268395 1 0 tcp 1050 ------- 0 0.3.0.0 1.0.1.0 14 27
r 11.268404 3 1 tcp 1050 ------- 0 0.3.0.0 1.0.1.0 15 28
+ 11.268404 1 0 tcp 1050 ------- 0 0.3.0.0 1.0.1.0 15 28
r 11.284386 1 3 ack 60 ------- 0 1.0.1.0 0.3.0.0 7 24
+ 11.284386 3 1 tcp 1050 ------- 0 0.3.0.0 1.0.1.0 16 30
- 11.284386 3 1 tcp 1050 ------- 0 0.3.0.0 1.0.1.0 16 30
+ 11.284386 3 1 tcp 1050 ------- 0 0.3.0.0 1.0.1.0 17 31
- 11.284395 3 1 tcp 1050 ------- 0 0.3.0.0 1.0.1.0 17 31
- 11.288682 1 0 tcp 1050 ------- 0 0.3.0.0 1.0.1.0 14 27
r 11.300395 0 1 ack 60 ------- 0 1.0.1.0 0.3.0.0 8 25
+ 11.300395 1 3 ack 60 ------- 0 1.0.1.0 0.3.0.0 8 25
- 11.300395 1 3 ack 60 ------- 0 1.0.1.0 0.3.0.0 8 25
r 11.316682 1 0 tcp 1050 ------- 0 0.3.0.0 1.0.1.0 11 20
+ 11.316682 0 4 tcp 1050 ------- 0 0.3.0.0 1.0.1.0 11 20
- 11.316682 0 4 tcp 1050 ------- 0 0.3.0.0 1.0.1.0 11 20
r 11.316866 0 4 tcp 1050 ------- 0 0.3.0.0 1.0.1.0 11 20
r 11.318379983 _5_ AGT  --- 20 tcp 1050 [3c 1 0 0] ------- [6144:0 4194305:0 28 4194305] [11 0] 1 0
s 11.318379983 _5_ AGT  --- 32 ack 40 [0 0 0 0] ------- [4194305:0 6144:0 32 0] [11 0] 0 0
+ 11.318645 4 0 ack 60 ------- 0 1.0.1.0 0.3.0.0 11 32
- 11.318645 4 0 ack 60 ------- 0 1.0.1.0 0.3.0.0 11 32
r 11.31875 4 0 ack 60 ------- 0 1.0.1.0 0.3.0.0 11 32
+ 11.31875 0 1 ack 60 ------- 0 1.0.1.0 0.3.0.0 11 32
- 11.31875 0 1 ack 60 ------- 0 1.0.1.0 0.3.0.0 11 32
r 11.324395 3 1 tcp 1050 ------- 0 0.3.0.0 1.0.1.0 16 30
+ 11.324395 1 0 tcp 1050 ------- 0 0.3.0.0 1.0.1.0 16 30
r 11.324404 3 1 tcp 1050 ------- 0 0.3.0.0 1.0.1.0 17 31
+ 11.324404 1 0 tcp 1050 ------- 0 0.3.0.0 1.0.1.0 17 31
r 11.340395 1 3 ack 60 ------- 0 1.0.1.0 0.3.0.0 8 25
+ 11.340395 3 1 tcp 1050 ------- 0 0.3.0.0 1.0.1.0 18 33
- 11.340395 3 1 tcp 1050 ------- 0 0.3.0.0 1.0.1.0 18 33
+ 11.340395 3 1 tcp 1050 ------- 0 0.3.0.0 1.0.1.0 19 34
- 11.340404 3 1 tcp 1050 ------- 0 0.3.0.0 1.0.1.0 19 34
- 11.344682 1 0 tcp 1050 ------- 0 0.3.0.0 1.0.1.0 15 28
r 11.356413 0 1 ack 60 ------- 0 1.0.1.0 0.3.0.0 9 26
+ 11.356413 1 3 ack 60 ------- 0 1.0.1.0 0.3.0.0 9 26
- 11.356413 1 3 ack 60 ------- 0 1.0.1.0 0.3.0.0 9 26
r 11.372682 1 0 tcp 1050 ------- 0 0.3.0.0 1.0.1.0 12 21
+ 11.372682 0 4 tcp 1050 ------- 0 0.3.0.0 1.0.1.0 12 21
- 11.372682 0 4 tcp 1050 ------- 0 0.3.0.0 1.0.1.0 12 21
r 11.372866 0 4 tcp 1050 ------- 0 0.3.0.0 1.0.1.0 12 21
r 11.374379983 _5_ AGT  --- 21 tcp 1050 [3c 1 0 0] ------- [6144:0 4194305:0 28 4194305] [12 0] 1 0
s 11.374379983 _5_ AGT  --- 35 ack 40 [0 0 0 0] ------- [4194305:0 6144:0 32 0] [12 0] 0 0
+ 11.374699 4 0 ack 60 ------- 0 1.0.1.0 0.3.0.0 12 35
- 11.374699 4 0 ack 60 ------- 0 1.0.1.0 0.3.0.0 12 35
r 11.374804 4 0 ack 60 ------- 0 1.0.1.0 0.3.0.0 12 35
+ 11.374804 0 1 ack 60 ------- 0 1.0.1.0 0.3.0.0 12 35
- 11.374804 0 1 ack 60 ------- 0 1.0.1.0 0.3.0.0 12 35
r 11.380404 3 1 tcp 1050 ------- 0 0.3.0.0 1.0.1.0 18 33
+ 11.380404 1 0 tcp 1050 ------- 0 0.3.0.0 1.0.1.0 18 33
r 11.380413 3 1 tcp 1050 ------- 0 0.3.0.0 1.0.1.0 19 34
+ 11.380413 1 0 tcp 1050 ------- 0 0.3.0.0 1.0.1.0 19 34
r 11.396413 1 3 ack 60 ------- 0 1.0.1.0 0.3.0.0 9 26
+ 11.396413 3 1 tcp 1050 ------- 0 0.3.0.0 1.0.1.0 20 36
- 11.396413 3 1 tcp 1050 ------- 0 0.3.0.0 1.0.1.0 20 36
+ 11.396413 3 1 tcp 1050 ------- 0 0.3.0.0 1.0.1.0 21 37
- 11.396422 3 1 tcp 1050 ------- 0 0.3.0.0 1.0.1.0 21 37
- 11.400682 1 0 tcp 1050 ------- 0 0.3.0.0 1.0.1.0 16 30
r 11.412422 0 1 ack 60 ------- 0 1.0.1.0 0.3.0.0 10 29
+ 11.412422 1 3 ack 60 ------- 0 1.0.1.0 0.3.0.0 10 29
- 11.412422 1 3 ack 60 ------- 0 1.0.1.0 0.3.0.0 10 29
r 11.428682 1 0 tcp 1050 ------- 0 0.3.0.0 1.0.1.0 13 22
+ 11.428682 0 4 tcp 1050 ------- 0 0.3.0.0 1.0.1.0 13 22
- 11.428682 0 4 tcp 1050 ------- 0 0.3.0.0 1.0.1.0 13 22
r 11.428866 0 4 tcp 1050 ------- 0 0.3.0.0 1.0.1.0 13 22
r 11.430379983 _5_ AGT  --- 22 tcp 1050 [3c 1 0 0] ------- [6144:0 4194305:0 28 4194305] [13 0] 1 0
s 11.430379983 _5_ AGT  --- 38 ack 40 [0 0 0 0] ------- [4194305:0 6144:0 32 0] [13 0] 0 0
+ 11.430618 4 0 ack 60 ------- 0 1.0.1.0 0.3.0.0 13 38
- 11.430618 4 0 ack 60 ------- 0 1.0.1.0 0.3.0.0 13 38
r 11.430723 4 0 ack 60 ------- 0 1.0.1.0 0.3.0.0 13 38
+ 11.430723 0 1 ack 60 ------- 0 1.0.1.0 0.3.0.0 13 38
- 11.430723 0 1 ack 60 ------- 0 1.0.1.0 0.3.0.0 13 38
r 11.436422 3 1 tcp 1050 ------- 0 0.3.0.0 1.0.1.0 20 36
+ 11.436422 1 0 tcp 1050 ------- 0 0.3.0.0 1.0.1.0 20 36
r 11.436431 3 1 tcp 1050 ------- 0 0.3.0.0 1.0.1.0 21 37
+ 11.436431 1 0 tcp 1050 ------- 0 0.3.0.0 1.0.1.0 21 37
r 11.452422 1 3 ack 60 ------- 0 1.0.1.0 0.3.0.0 10 29
+ 11.452422 3 1 tcp 1050 ------- 0 0.3.0.0 1.0.1.0 22 39
- 11.452422 3 1 tcp 1050 ------- 0 0.3.0.0 1.0.1.0 22 39
+ 11.452422 3 1 tcp 1050 ------- 0 0.3.0.0 1.0.1.0 23 40
- 11.452431 3 1 tcp 1050 ------- 0 0.3.0.0 1.0.1.0 23 40
- 11.456682 1 0 tcp 1050 ------- 0 0.3.0.0 1.0.1.0 17 31
r 11.46835 0 1 ack 60 ------- 0 1.0.1.0 0.3.0.0 11 32
+ 11.46835 1 3 ack 60 ------- 0 1.0.1.0 0.3.0.0 11 32
- 11.46835 1 3 ack 60 ------- 0 1.0.1.0 0.3.0.0 11 32
r 11.484682 1 0 tcp 1050 ------- 0 0.3.0.0 1.0.1.0 14 27
+ 11.484682 0 4 tcp 1050 ------- 0 0.3.0.0 1.0.1.0 14 27
- 11.484682 0 4 tcp 1050 ------- 0 0.3.0.0 1.0.1.0 14 27
r 11.484866 0 4 tcp 1050 ------- 0 0.3.0.0 1.0.1.0 14 27
r 11.486379983 _5_ AGT  --- 27 tcp 1050 [3c 1 0 0] ------- [6144:0 4194305:0 28 4194305] [14 0] 1 0
s 11.486379983 _5_ AGT  --- 41 ack 40 [0 0 0 0] ------- [4194305:0 6144:0 32 0] [14 0] 0 0
+ 11.486663 4 0 ack 60 ------- 0 1.0.1.0 0.3.0.0 14 41
- 11.486663 4 0 ack 60 ------- 0 1.0.1.0 0.3.0.0 14 41
r 11.486768 4 0 ack 60 ------- 0 1.0.1.0 0.3.0.0 14 41
+ 11.486768 0 1 ack 60 ------- 0 1.0.1.0 0.3.0.0 14 41
- 11.486768 0 1 ack 60 ------- 0 1.0.1.0 0.3.0.0 14 41
r 11.492431 3 1 tcp 1050 ------- 0 0.3.0.0 1.0.1.0 22 39
+ 11.492431 1 0 tcp 1050 ------- 0 0.3.0.0 1.0.1.0 22 39
r 11.49244 3 1 tcp 1050 ------- 0 0.3.0.0 1.0.1.0 23 40
+ 11.49244 1 0 tcp 1050 ------- 0 0.3.0.0 1.0.1.0 23 40
r 11.50835 1 3 ack 60 ------- 0 1.0.1.0 0.3.0.0 11 32
+ 11.50835 3 1 tcp 1050 ------- 0 0.3.0.0 1.0.1.0 24 42
- 11.50835 3 1 tcp 1050 ------- 0 0.3.0.0 1.0.1.0 24 42
+ 11.50835 3 1 tcp 1050 ------- 0 0.3.0.0 1.0.1.0 25 43
- 11.508359 3 1 tcp 1050 ------- 0 0.3.0.0 1.0.1.0 25 43
- 11.512682 1 0 tcp 1050 ------- 0 0.3.0.0 1.0.1.0 18 33
r 11.524404 0 1 ack 60 ------- 0 1.0.1.0 0.3.0.0 12 35
+ 11.524404 1 3 ack 60 ------- 0 1.0.1.0 0.3.0.0 12 35
- 11.524404 1 3 ack 60 ------- 0 1.0.1.0 0.3.0.0 12 35
r 11.540682 1 0 tcp 1050 ------- 0 0.3.0.0 1.0.1.0 15 28
+ 11.540682 0 4 tcp 1050 ------- 0 0.3.0.0 1.0.1.0 15 28
- 11.540682 0 4 tcp 1050 ------- 0 0.3.0.0 1.0.1.0 15 28
r 11.540866 0 4 tcp 1050 ------- 0 0.3.0.0 1.0.1.0 15 28
r 11.542379983 _5_ AGT  --- 28 tcp 1050 [3c 1 0 0] ------- [6144:0 4194305:0 28 4194305] [15 0] 1 0
s 11.542379983 _5_ AGT  --- 44 ack 40 [0 0 0 0] ------- [4194305:0 6144:0 32 0] [15 0] 0 0
+ 11.542681 4 0 ack 60 ------- 0 1.0.1.0 0.3.0.0 15 44
- 11.542681 4 0 ack 60 ------- 0 1.0.1.0 0.3.0.0 15 44
r 11.542786 4 0 ack 60 ------- 0 1.0.1.0 0.3.0.0 15 44
+ 11.542786 0 1 ack 60 ------- 0 1.0.1.0 0.3.0.0 15 44
- 11.542786 0 1 ack 60 ------- 0 1.0.1.0 0.3.0.0 15 44
r 11.548359 3 1 tcp 1050 ------- 0 0.3.0.0 1.0.1.0 24 42
+ 11.548359 1 0 tcp 1050 ------- 0 0.3.0.0 1.0.1.0 24 42
r 11.548368 3 1 tcp 1050 ------- 0 0.3.0.0 1.0.1.0 25 43
+ 11.548368 1 0 tcp 1050 ------- 0 0.3.0.0 1.0.1.0 25 43
r 11.564404 1 3 ack 60 ------- 0 1.0.1.0 0.3.0.0 12 35
+ 11.564404 3 1 tcp 1050 ------- 0 0.3.0.0 1.0.1.0 26 45
- 11.564404 3 1 tcp 1050 ------- 0 0.3.0.0 1.0.1.0 26 45
+ 11.564404 3 1 tcp 1050 ------- 0 0.3.0.0 1.0.1.0 27 46
- 11.564413 3 1 tcp 1050 ------- 0 0.3.0.0 1.0.1.0 27 46
- 11.568682 1 0 tcp 1050 ------- 0 0.3.0.0 1.0.1.0 19 34
r 11.580323 0 1 ack 60 ------- 0 1.0.1.0 0.3.0.0 13 38
+ 11.580323 1 3 ack 60 ------- 0 1.0.1.0 0.3.0.0 13 38
- 11.580323 1 3 ack 60 ------- 0 1.0.1.0 0.3.0.0 13 38
r 11.596682 1 0 tcp 1050 ------- 0 0.3.0.0 1.0.1.0 16 30
+ 11.596682 0 4 tcp 1050 ------- 0 0.3.0.0 1.0.1.0 16 30
- 11.596682 0 4 tcp 1050 ------- 0 0.3.0.0 1.0.1.0 16 30
r 11.596866 0 4 tcp 1050 ------- 0 0.3.0.0 1.0.1.0 16 30
r 11.598379983 _5_ AGT  --- 30 tcp 1050 [3c 1 0 0] ------- [6144:0 4194305:0 28 4194305] [16 0] 1 0
s 11.598379983 _5_ AGT  --- 47 ack 40 [0 0 0 0] ------- [4194305:0 6144:0 32 0] [16 0] 0 0
+ 11.598618 4 0 ack 60 ------- 0 1.0.1.0 0.3.0.0 16 47
- 11.598618 4 0 ack 60 ------- 0 1.0.1.0 0.3.0.0 16 47
r 11.598723 4 0 ack 60 ------- 0 1.0.1.0 0.3.0.0 16 47
+ 11.598723 0 1 ack 60 ------- 0 1.0.1.0 0.3.0.0 16 47
- 11.598723 0 1 ack 60 ------- 0 1.0.1.0 0.3.0.0 16 47
r 11.604413 3 1 tcp 1050 ------- 0 0.3.0.0 1.0.1.0 26 45
+ 11.604413 1 0 tcp 1050 ------- 0 0.3.0.0 1.0.1.0 26 45
r 11.604422 3 1 tcp 1050 ------- 0 0.3.0.0 1.0.1.0 27 46
+ 11.604422 1 0 tcp 1050 ------- 0 0.3.0.0 1.0.1.0 27 46
r 11.620323 1 3 ack 60 ------- 0 1.0.1.0 0.3.0.0 13 38
+ 11.620323 3 1 tcp 1050 ------- 0 0.3.0.0 1.0.1.0 28 48
- 11.620323 3 1 tcp 1050 ------- 0 0.3.0.0 1.0.1.0 28 48
+ 11.620323 3 1 tcp 1050 ------- 0 0.3.0.0 1.0.1.0 29 49
- 11.620332 3 1 tcp 1050 ------- 0 0.3.0.0 1.0.1.0 29 49
- 11.624682 1 0 tcp 1050 ------- 0 0.3.0.0 1.0.1.0 20 36
r 11.636368 0 1 ack 60 ------- 0 1.0.1.0 0.3.0.0 14 41
+ 11.636368 1 3 ack 60 ------- 0 1.0.1.0 0.3.0.0 14 41
- 11.636368 1 3 ack 60 ------- 0 1.0.1.0 0.3.0.0 14 41
r 11.652682 1 0 tcp 1050 ------- 0 0.3.0.0 1.0.1.0 17 31
+ 11.652682 0 4 tcp 1050 ------- 0 0.3.0.0 1.0.1.0 17 31
- 11.652682 0 4 tcp 1050 ------- 0 0.3.0.0 1.0.1.0 17 31
r 11.652866 0 4 tcp 1050 ------- 0 0.3.0.0 1.0.1.0 17 31
r 11.654379983 _5_ AGT  --- 31 tcp 1050 [3c 1 0 0] ------- [6144:0 4194305:0 28 4194305] [17 0] 1 0
s 11.654379983 _5_ AGT  --- 50 ack 40 [0 0 0 0] ------- [4194305:0 6144:0 32 0] [17 0] 0 0
+ 11.654681 4 0 ack 60 ------- 0 1.0.1.0 0.3.0.0 17 50
- 11.654681 4 0 ack 60 ------- 0 1.0.1.0 0.3.0.0 17 50
r 11.654786 4 0 ack 60 ------- 0 1.0.1.0 0.3.0.0 17 50
+ 11.654786 0 1 ack 60 ------- 0 1.0.1.0 0.3.0.0 17 50
- 11.654786 0 1 ack 60 ------- 0 1.0.1.0 0.3.0.0 17 50
r 11.660332 3 1 tcp 1050 ------- 0 0.3.0.0 1.0.1.0 28 48
+ 11.660332 1 0 tcp 1050 ------- 0 0.3.0.0 1.0.1.0 28 48
r 11.660341 3 1 tcp 1050 ------- 0 0.3.0.0 1.0.1.0 29 49
+ 11.660341 1 0 tcp 1050 ------- 0 0.3.0.0 1.0.1.0 29 49
r 11.676368 1 3 ack 60 ------- 0 1.0.1.0 0.3.0.0 14 41
+ 11.676368 3 1 tcp 1050 ------- 0 0.3.0.0 1.0.1.0 30 51
- 11.676368 3 1 tcp 1050 ------- 0 0.3.0.0 1.0.1.0 30 51
+ 11.676368 3 1 tcp 1050 ------- 0 0.3.0.0 1.0.1.0 31 52
- 11.676377 3 1 tcp 1050 ------- 0 0.3.0.0 1.0.1.0 31 52
- 11.680682 1 0 tcp 1050 ------- 0 0.3.0.0 1.0.1.0 21 37
r 11.692386 0 1 ack 60 ------- 0 1.0.1.0 0.3.0.0 15 44
+ 11.692386 1 3 ack 60 ------- 0 1.0.1.0 0.3.0.0 15 44
- 11.692386 1 3 ack 60 ------- 0 1.0.1.0 0.3.0.0 15 44
r 11.708682 1 0 tcp 1050 ------- 0 0.3.0.0 1.0.1.0 18 33
+ 11.708682 0 4 tcp 1050 ------- 0 0.3.0.0 1.0.1.0 18 33
- 11.708682 0 4 tcp 1050 ------- 0 0.3.0.0 1.0.1.0 18 33
r 11.708866 0 4 tcp 1050 ------- 0 0.3.0.0 1.0.1.0 18 33
r 11.710379983 _5_ AGT  --- 33 tcp 1050 [3c 1 0 0] ------- [6144:0 4194305:0 28 4194305] [18 0] 1 0
s 11.710379983 _5_ AGT  --- 53 ack 40 [0 0 0 0] ------- [4194305:0 6144:0 32 0] [18 0] 0 0
+ 11.710645 4 0 ack 60 ------- 0 1.0.1.0 0.3.0.0 18 53
- 11.710645 4 0 ack 60 ------- 0 1.0.1.0 0.3.0.0 18 53
r 11.71075 4 0 ack 60 ------- 0 1.0.1.0 0.3.0.0 18 53
+ 11.71075 0 1 ack 60 ------- 0 1.0.1.0 0.3.0.0 18 53
- 11.71075 0 1 ack 60 ------- 0 1.0.1.0 0.3.0.0 18 53
r 11.716377 3 1 tcp 1050 ------- 0 0.3.0.0 1.0.1.0 30 51
+ 11.716377 1 0 tcp 1050 ------- 0 0.3.0.0 1.0.1.0 30 51
r 11.716386 3 1 tcp 1050 ------- 0 0.3.0.0 1.0.1.0 31 52
+ 11.716386 1 0 tcp 1050 ------- 0 0.3.0.0 1.0.1.0 31 52
r 11.732386 1 3 ack 60 ------- 0 1.0.1.0 0.3.0.0 15 44
+ 11.732386 3 1 tcp 1050 ------- 0 0.3.0.0 1.0.1.0 32 54
- 11.732386 3 1 tcp 1050 ------- 0 0.3.0.0 1.0.1.0 32 54
+ 11.732386 3 1 tcp 1050 ------- 0 0.3.0.0 1.0.1.0 33 55
- 11.732395 3 1 tcp 1050 ------- 0 0.3.0.0 1.0.1.0 33 55
- 11.736682 1 0 tcp 1050 ------- 0 0.3.0.0 1.0.1.0 22 39
r 11.748323 0 1 ack 60 ------- 0 1.0.1.0 0.3.0.0 16 47
+ 11.748323 1 3 ack 60 ------- 0 1.0.1.0 0.3.0.0 16 47
- 11.748323 1 3 ack 60 ------- 0 1.0.1.0 0.3.0.0 16 47
r 11.764682 1 0 tcp 1050 ------- 0 0.3.0.0 1.0.1.0 19 34
+ 11.764682 0 4 tcp 1050 ------- 0 0.3.0.0 1.0.1.0 19 34
- 11.764682 0 4 tcp 1050 ------- 0 0.3.0.0 1.0.1.0 19 34
r 11.764866 0 4 tcp 1050 ------- 0 0.3.0.0 1.0.1.0 19 34
r 11.766379983 _5_ AGT  --- 34 tcp 1050 [3c 1 0 0] ------- [6144:0 4194305:0 28 4194305] [19 0] 1 0
s 11.766379983 _5_ AGT  --- 56 ack 40 [0 0 0 0] ------- [4194305:0 6144:0 32 0] [19 0] 0 0
+ 11.766618 4 0 ack 60 ------- 0 1.0.1.0 0.3.0.0 19 56
- 11.766618 4 0 ack 60 ------- 0 1.0.1.0 0.3.0.0 19 56
r 11.766723 4 0 ack 60 ------- 0 1.0.1.0 0.3.0.0 19 56
+ 11.766723 0 1 ack 60 ------- 0 1.0.1.0 0.3.0.0 19 56
- 11.766723 0 1 ack 60 ------- 0 1.0.1.0 0.3.0.0 19 56
r 11.772395 3 1 tcp 1050 ------- 0 0.3.0.0 1.0.1.0 32 54
+ 11.772395 1 0 tcp 1050 ------- 0 0.3.0.0 1.0.1.0 32 54
r 11.772404 3 1 tcp 1050 ------- 0 0.3.0.0 1.0.1.0 33 55
+ 11.772404 1 0 tcp 1050 ------- 0 0.3.0.0 1.0.1.0 33 55
r 11.788323 1 3 ack 60 ------- 0 1.0.1.0 0.3.0.0 16 47
+ 11.788323 3 1 tcp 1050 ------- 0 0.3.0.0 1.0.1.0 34 57
- 11.788323 3 1 tcp 1050 ------- 0 0.3.0.0 1.0.1.0 34 57
+ 11.788323 3 1 tcp 1050 ------- 0 0.3.0.0 1.0.1.0 35 58
- 11.788332 3 1 tcp 1050 ------- 0 0.3.0.0 1.0.1.0 35 58
- 11.792682 1 0 tcp 1050 ------- 0 0.3.0.0 1.0.1.0 23 40
r 11.804386 0 1 ack 60 ------- 0 1.0.1.0 0.3.0.0 17 50
+ 11.804386 1 3 ack 60 ------- 0 1.0.1.0 0.3.0.0 17 50
- 11.804386 1 3 ack 60 ------- 0 1.0.1.0 0.3.0.0 17 50
r 11.820682 1 0 tcp 1050 ------- 0 0.3.0.0 1.0.1.0 20 36
+ 11.820682 0 4 tcp 1050 ------- 0 0.3.0.0 1.0.1.0 20 36
- 11.820682 0 4 tcp 1050 ------- 0 0.3.0.0 1.0.1.0 20 36
r 11.820866 0 4 tcp 1050 ------- 0 0.3.0.0 1.0.1.0 20 36
r 11.822379983 _5_ AGT  --- 36 tcp 1050 [3c 1 0 0] ------- [6144:0 4194305:0 28 4194305] [20 0] 1 0
s 11.822379983 _5_ AGT  --- 59 ack 40 [0 0 0 0] ------- [4194305:0 6144:0 32 0] [20 0] 0 0
+ 11.822627 4 0 ack 60 ------- 0 1.0.1.0 0.3.0.0 20 59
- 11.822627 4 0 ack 60 ------- 0 1.0.1.0 0.3.0.0 20 59
r 11.822732 4 0 ack 60 ------- 0 1.0.1.0 0.3.0.0 20 59
+ 11.822732 0 1 ack 60 ------- 0 1.0.1.0 0.3.0.0 20 59
- 11.822732 0 1 ack 60 ------- 0 1.0.1.0 0.3.0.0 20 59
r 11.828332 3 1 tcp 1050 ------- 0 0.3.0.0 1.0.1.0 34 57
+ 11.828332 1 0 tcp 1050 ------- 0 0.3.0.0 1.0.1.0 34 57
r 11.828341 3 1 tcp 1050 ------- 0 0.3.0.0 1.0.1.0 35 58
+ 11.828341 1 0 tcp 1050 ------- 0 0.3.0.0 1.0.1.0 35 58
r 11.844386 1 3 ack 60 ------- 0 1.0.1.0 0.3.0.0 17 50
+ 11.844386 3 1 tcp 1050 ------- 0 0.3.0.0 1.0.1.0 36 60
- 11.844386 3 1 tcp 1050 ------- 0 0.3.0.0 1.0.1.0 36 60
+ 11.844386 3 1 tcp 1050 ------- 0 0.3.0.0 1.0.1.0 37 61
- 11.844395 3 1 tcp 1050 ------- 0 0.3.0.0 1.0.1.0 37 61
- 11.848682 1 0 tcp 1050 ------- 0 0.3.0.0 1.0.1.0 24 42
r 11.86035 0 1 ack 60 ------- 0 1.0.1.0 0.3.0.0 18 53
+ 11.86035 1 3 ack 60 ------- 0 1.0.1.0 0.3.0.0 18 53
- 11.86035 1 3 ack 60 ------- 0 1.0.1.0 0.3.0.0 18 53
r 11.876682 1 0 tcp 1050 ------- 0 0.3.0.0 1.0.1.0 21 37
+ 11.876682 0 4 tcp 1050 ------- 0 0.3.0.0 1.0.1.0 21 37
- 11.876682 0 4 tcp 1050 ------- 0 0.3.0.0 1.0.1.0 21 37
r 11.876866 0 4 tcp 1050 ------- 0 0.3.0.0 1.0.1.0 21 37
r 11.878379983 _5_ AGT  --- 37 tcp 1050 [3c 1 0 0] ------- [6144:0 4194305:0 28 4194305] [21 0] 1 0
s 11.878379983 _5_ AGT  --- 62 ack 40 [0 0 0 0] ------- [4194305:0 6144:0 32 0] [21 0] 0 0
+ 11.878672 4 0 ack 60 ------- 0 1.0.1.0 0.3.0.0 21 62
- 11.878672 4 0 ack 60 ------- 0 1.0.1.0 0.3.0.0 21 62
r 11.878777 4 0 ack 60 ------- 0 1.0.1.0 0.3.0.0 21 62
+ 11.878777 0 1 ack 60 ------- 0 1.0.1.0 0.3.0.0 21 62
- 11.878777 0 1 ack 60 ------- 0 1.0.1.0 0.3.0.0 21 62
r 11.884395 3 1 tcp 1050 ------- 0 0.3.0.0 1.0.1.0 36 60
+ 11.884395 1 0 tcp 1050 ------- 0 0.3.0.0 1.0.1.0 36 60
r 11.884404 3 1 tcp 1050 ------- 0 0.3.0.0 1.0.1.0 37 61
+ 11.884404 1 0 tcp 1050 ------- 0 0.3.0.0 1.0.1.0 37 61
r 11.90035 1 3 ack 60 ------- 0 1.0.1.0 0.3.0.0 18 53
+ 11.90035 3 1 tcp 1050 ------- 0 0.3.0.0 1.0.1.0 38 63
- 11.90035 3 1 tcp 1050 ------- 0 0.3.0.0 1.0.1.0 38 63
- 11.904682 1 0 tcp 1050 ------- 0 0.3.0.0 1.0.1.0 25 43
r 11.916323 0 1 ack 60 ------- 0 1.0.1.0 0.3.0.0 19 56
+ 11.916323 1 3 ack 60 ------- 0 1.0.1.0 0.3.0.0 19 56
- 11.916323 1 3 ack 60 ------- 0 1.0.1.0 0.3.0.0 19 56
r 11.932682 1 0 tcp 1050 ------- 0 0.3.0.0 1.0.1.0 22 39
+ 11.932682 0 4 tcp 1050 ------- 0 0.3.0.0 1.0.1.0 22 39
- 11.932682 0 4 tcp 1050 ------- 0 0.3.0.0 1.0.1.0 22 39
r 11.932866 0 4 tcp 1050 ------- 0 0.3.0.0 1.0.1.0 22 39
r 11.934379983 _5_ AGT  --- 39 tcp 1050 [3c 1 0 0] ------- [6144:0 4194305:0 28 4194305] [22 0] 1 0
s 11.934379983 _5_ AGT  --- 64 ack 40 [0 0 0 0] ------- [4194305:0 6144:0 32 0] [22 0] 0 0
+ 11.934753 4 0 ack 60 ------- 0 1.0.1.0 0.3.0.0 22 64