s 10.000000000 _2_ AGT  --- 3 tcp 40 [0 0 0 0] ------- [4194305:0 0:0 32 0] [0 0] 0 0
+ 10.005233 1 0 tcp 60 ------- 2 1.0.1.0 0.0.0.0 0 3
- 10.005233 1 0 tcp 60 ------- 2 1.0.1.0 0.0.0.0 0 3
r 10.007329 1 0 tcp 60 ------- 2 1.0.1.0 0.0.0.0 0 3
+ 10.007329 0 1 ack 40 ------- 2 0.0.0.0 1.0.1.0 0 4
- 10.007329 0 1 ack 40 ------- 2 0.0.0.0 1.0.1.0 0 4
r 10.009393 0 1 ack 40 ------- 2 0.0.0.0 1.0.1.0 0 4
r 10.011173286 _2_ AGT  --- 4 ack 40 [13a 1 0 800] ------- [0:0 4194305:0 30 4194305] [0 0] 1 0
s 10.011173286 _2_ AGT  --- 5 tcp 1040 [0 0 0 0] ------- [4194305:0 0:0 32 0] [1 0] 0 0
s 10.011173286 _2_ AGT  --- 6 tcp 1040 [0 0 0 0] ------- [4194305:0 0:0 32 0] [2 0] 0 0
+ 10.021178 1 0 tcp 1060 ------- 2 1.0.1.0 0.0.0.0 1 5
- 10.021178 1 0 tcp 1060 ------- 2 1.0.1.0 0.0.0.0 1 5
r 10.024874 1 0 tcp 1060 ------- 2 1.0.1.0 0.0.0.0 1 5
+ 10.024874 0 1 ack 40 ------- 2 0.0.0.0 1.0.1.0 1 7
- 10.024874 0 1 ack 40 ------- 2 0.0.0.0 1.0.1.0 1 7
r 10.026938 0 1 ack 40 ------- 2 0.0.0.0 1.0.1.0 1 7
+ 10.031603 1 0 tcp 1060 ------- 2 1.0.1.0 0.0.0.0 2 6
- 10.031603 1 0 tcp 1060 ------- 2 1.0.1.0 0.0.0.0 2 6
r 10.033607573 _2_ AGT  --- 7 ack 40 [13a 1 0 800] ------- [0:0 4194305:0 30 4194305] [1 0] 1 0
s 10.033607573 _2_ AGT  --- 8 tcp 1040 [0 0 0 0] ------- [4194305:0 0:0 32 0] [3 0] 0 0
s 10.033607573 _2_ AGT  --- 9 tcp 1040 [0 0 0 0] ------- [4194305:0 0:0 32 0] [4 0] 0 0
r 10.035299 1 0 tcp 1060 ------- 2 1.0.1.0 0.0.0.0 2 6
+ 10.035299 0 1 ack 40 ------- 2 0.0.0.0 1.0.1.0 2 10
- 10.035299 0 1 ack 40 ------- 2 0.0.0.0 1.0.1.0 2 10
r 10.037363 0 1 ack 40 ------- 2 0.0.0.0 1.0.1.0 2 10
+ 10.043992 1 0 tcp 1060 ------- 2 1.0.1.0 0.0.0.0 3 8
- 10.043992 1 0 tcp 1060 ------- 2 1.0.1.0 0.0.0.0 3 8
r 10.047688 1 0 tcp 1060 ------- 2 1.0.1.0 0.0.0.0 3 8
+ 10.047688 0 1 ack 40 ------- 2 0.0.0.0 1.0.1.0 3 11
- 10.047688 0 1 ack 40 ------- 2 0.0.0.0 1.0.1.0 3 11
r 10.049752 0 1 ack 40 ------- 2 0.0.0.0 1.0.1.0 3 11
+ 10.054337 1 0 tcp 1060 ------- 2 1.0.1.0 0.0.0.0 4 9
- 10.054337 1 0 tcp 1060 ------- 2 1.0.1.0 0.0.0.0 4 9
r 10.056341859 _2_ AGT  --- 10 ack 40 [13a 1 0 800] ------- [0:0 4194305:0 30 4194305] [2 0] 1 0
s 10.056341859 _2_ AGT  --- 12 tcp 1040 [0 0 0 0] ------- [4194305:0 0:0 32 0] [5 0] 0 0
s 10.056341859 _2_ AGT  --- 13 tcp 1040 [0 0 0 0] ------- [4194305:0 0:0 32 0] [6 0] 0 0
r 10.058033 1 0 tcp 1060 ------- 2 1.0.1.0 0.0.0.0 4 9
+ 10.058033 0 1 ack 40 ------- 2 0.0.0.0 1.0.1.0 4 14
- 10.058033 0 1 ack 40 ------- 2 0.0.0.0 1.0.1.0 4 14
r 10.060097 0 1 ack 40 ------- 2 0.0.0.0 1.0.1.0 4 14
+ 10.066627 1 0 tcp 1060 ------- 2 1.0.1.0 0.0.0.0 5 12
- 10.066627 1 0 tcp 1060 ------- 2 1.0.1.0 0.0.0.0 5 12
r 10.068531231 _2_ AGT  --- 11 ack 40 [13a 1 0 800] ------- [0:0 4194305:0 30 4194305] [3 0] 1 0
s 10.068531231 _2_ AGT  --- 15 tcp 1040 [0 0 0 0] ------- [4194305:0 0:0 32 0] [7 0] 0 0
s 10.068531231 _2_ AGT  --- 16 tcp 1040 [0 0 0 0] ------- [4194305:0 0:0 32 0] [8 0] 0 0
r 10.070323 1 0 tcp 1060 ------- 2 1.0.1.0 0.0.0.0 5 12
+ 10.070323 0 1 ack 40 ------- 2 0.0.0.0 1.0.1.0 5 17
- 10.070323 0 1 ack 40 ------- 2 0.0.0.0 1.0.1.0 5 17
r 10.072387 0 1 ack 40 ------- 2 0.0.0.0 1.0.1.0 5 17
+ 10.078576 1 0 tcp 1060 ------- 2 1.0.1.0 0.0.0.0 6 13
- 10.078576 1 0 tcp 1060 ------- 2 1.0.1.0 0.0.0.0 6 13
r 10.080440603 _2_ AGT  --- 14 ack 40 [13a 1 0 800] ------- [0:0 4194305:0 30 4194305] [4 0] 1 0
s 10.080440603 _2_ AGT  --- 18 tcp 1040 [0 0 0 0] ------- [4194305:0 0:0 32 0] [9 0] 0 0
s 10.080440603 _2_ AGT  --- 19 tcp 1040 [0 0 0 0] ------- [4194305:0 0:0 32 0] [10 0] 0 0
r 10.082272 1 0 tcp 1060 ------- 2 1.0.1.0 0.0.0.0 6 13
+ 10.082272 0 1 ack 40 ------- 2 0.0.0.0 1.0.1.0 6 20
- 10.082272 0 1 ack 40 ------- 2 0.0.0.0 1.0.1.0 6 20
r 10.082465518 _2_ AGT  --- 17 ack 40 [13a 1 0 800] ------- [0:0 4194305:0 30 4194305] [5 0] 1 0
s 10.082465518 _2_ AGT  --- 21 tcp 1040 [0 0 0 0] ------- [4194305:0 0:0 32 0] [11 0] 0 0
s 10.082465518 _2_ AGT  --- 22 tcp 1040 [0 0 0 0] ------- [4194305:0 0:0 32 0] [12 0] 0 0
r 10.084336 0 1 ack 40 ------- 2 0.0.0.0 1.0.1.0 6 20
+ 10.09249 1 0 tcp 1060 ------- 2 1.0.1.0 0.0.0.0 7 15
- 10.09249 1 0 tcp 1060 ------- 2 1.0.1.0 0.0.0.0 7 15
r 10.094374889 _2_ AGT  --- 20 ack 40 [13a 1 0 800] ------- [0:0 4194305:0 30 4194305] [6 0] 1 0
s 10.094374889 _2_ AGT  --- 23 tcp 1040 [0 0 0 0] ------- [4194305:0 0:0 32 0] [13 0] 0 0
s 10.094374889 _2_ AGT  --- 24 tcp 1040 [0 0 0 0] ------- [4194305:0 0:0 32 0] [14 0] 0 0
r 10.096186 1 0 tcp 1060 ------- 2 1.0.1.0 0.0.0.0 7 15
+ 10.096186 0 1 ack 40 ------- 2 0.0.0.0 1.0.1.0 7 25
- 10.096186 0 1 ack 40 ------- 2 0.0.0.0 1.0.1.0 7 25
r 10.09825 0 1 ack 40 ------- 2 0.0.0.0 1.0.1.0 7 25
+ 10.10484 1 0 tcp 1060 ------- 2 1.0.1.0 0.0.0.0 8 16
- 10.10484 1 0 tcp 1060 ------- 2 1.0.1.0 0.0.0.0 8 16
r 10.106864261 _2_ AGT  --- 25 ack 40 [13a 1 0 800] ------- [0:0 4194305:0 30 4194305] [7 0] 1 0
s 10.106864261 _2_ AGT  --- 26 tcp 1040 [0 0 0 0] ------- [4194305:0 0:0 32 0] [15 0] 0 0
s 10.106864261 _2_ AGT  --- 27 tcp 1040 [0 0 0 0] ------- [4194305:0 0:0 32 0] [16 0] 0 0
r 10.108536 1 0 tcp 1060 ------- 2 1.0.1.0 0.0.0.0 8 16
+ 10.108536 0 1 ack 40 ------- 2 0.0.0.0 1.0.1.0 8 28
- 10.108536 0 1 ack 40 ------- 2 0.0.0.0 1.0.1.0 8 28
r 10.1106 0 1 ack 40 ------- 2 0.0.0.0 1.0.1.0 8 28
+ 10.117249 1 0 tcp 1060 ------- 2 1.0.1.0 0.0.0.0 9 18
- 10.117249 1 0 tcp 1060 ------- 2 1.0.1.0 0.0.0.0 9 18
r 10.119193633 _2_ AGT  --- 28 ack 40 [13a 1 0 800] ------- [0:0 4194305:0 30 4194305] [8 0] 1 0
s 10.119193633 _2_ AGT  --- 29 tcp 1040 [0 0 0 0] ------- [4194305:0 0:0 32 0] [17 0] 0 0
s 10.119193633 _2_ AGT  --- 30 tcp 1040 [0 0 0 0] ------- [4194305:0 0:0 32 0] [18 0] 0 0
r 10.120945 1 0 tcp 1060 ------- 2 1.0.1.0 0.0.0.0 9 18
+ 10.120945 0 1 ack 40 ------- 2 0.0.0.0 1.0.1.0 9 31
- 10.120945 0 1 ack 40 ------- 2 0.0.0.0 1.0.1.0 9 31
r 10.123009 0 1 ack 40 ------- 2 0.0.0.0 1.0.1.0 9 31
+ 10.129398 1 0 tcp 1060 ------- 2 1.0.1.0 0.0.0.0 10 19
- 10.129398 1 0 tcp 1060 ------- 2 1.0.1.0 0.0.0.0 10 19
r 10.133094 1 0 tcp 1060 ------- 2 1.0.1.0 0.0.0.0 10 19
+ 10.133094 0 1 ack 40 ------- 2 0.0.0.0 1.0.1.0 10 32
- 10.133094 0 1 ack 40 ------- 2 0.0.0.0 1.0.1.0 10 32
r 10.135158 0 1 ack 40 ------- 2 0.0.0.0 1.0.1.0 10 32
+ 10.140909 1 0 tcp 1060 ------- 2 1.0.1.0 0.0.0.0 11 21
- 10.140909 1 0 tcp 1060 ------- 2 1.0.1.0 0.0.0.0 11 21
r 10.144020377 _2_ AGT  --- 31 ack 40 [13a 1 0 800] ------- [0:0 4194305:0 30 4194305] [9 0] 1 0
s 10.144020377 _2_ AGT  --- 33 tcp 1040 [0 0 0 0] ------- [4194305:0 0:0 32 0] [19 0] 0 0
s 10.144020377 _2_ AGT  --- 34 tcp 1040 [0 0 0 0] ------- [4194305:0 0:0 32 0] [20 0] 0 0
r 10.144605 1 0 tcp 1060 ------- 2 1.0.1.0 0.0.0.0 11 21
+ 10.144605 0 1 ack 40 ------- 2 0.0.0.0 1.0.1.0 11 35
- 10.144605 0 1 ack 40 ------- 2 0.0.0.0 1.0.1.0 11 35
r 10.146165291 _2_ AGT  --- 32 ack 40 [13a 1 0 800] ------- [0:0 4194305:0 30 4194305] [10 0] 1 0
s 10.146165291 _2_ AGT  --- 36 tcp 1040 [0 0 0 0] ------- [4194305:0 0:0 32 0] [21 0] 0 0
s 10.146165291 _2_ AGT  --- 37 tcp 1040 [0 0 0 0] ------- [4194305:0 0:0 32 0] [22 0] 0 0
r 10.146669 0 1 ack 40 ------- 2 0.0.0.0 1.0.1.0 11 35
r 10.148449920 _2_ AGT  --- 35 ack 40 [13a 1 0 800] ------- [0:0 4194305:0 30 4194305] [11 0] 1 0
s 10.148449920 _2_ AGT  --- 38 tcp 1040 [0 0 0 0] ------- [4194305:0 0:0 32 0] [23 0] 0 0
s 10.148449920 _2_ AGT  --- 39 tcp 1040 [0 0 0 0] ------- [4194305:0 0:0 32 0] [24 0] 0 0
+ 10.158595 1 0 tcp 1060 ------- 2 1.0.1.0 0.0.0.0 12 22
- 10.158595 1 0 tcp 1060 ------- 2 1.0.1.0 0.0.0.0 12 22
r 10.162291 1 0 tcp 1060 ------- 2 1.0.1.0 0.0.0.0 12 22
+ 10.162291 0 1 ack 40 ------- 2 0.0.0.0 1.0.1.0 12 40
- 10.162291 0 1 ack 40 ------- 2 0.0.0.0 1.0.1.0 12 40
r 10.164355 0 1 ack 40 ------- 2 0.0.0.0 1.0.1.0 12 40
+ 10.16888 1 0 tcp 1060 ------- 2 1.0.1.0 0.0.0.0 13 23
- 10.16888 1 0 tcp 1060 ------- 2 1.0.1.0 0.0.0.0 13 23
r 10.170704206 _2_ AGT  --- 40 ack 40 [13a 1 0 800] ------- [0:0 4194305:0 30 4194305] [12 0] 1 0
s 10.170704206 _2_ AGT  --- 41 tcp 1040 [0 0 0 0] ------- [4194305:0 0:0 32 0] [25 0] 0 0
s 10.170704206 _2_ AGT  --- 42 tcp 1040 [0 0 0 0] ------- [4194305:0 0:0 32 0] [26 0] 0 0
r 10.172576 1 0 tcp 1060 ------- 2 1.0.1.0 0.0.0.0 13 23
+ 10.172576 0 1 ack 40 ------- 2 0.0.0.0 1.0.1.0 13 43
- 10.172576 0 1 ack 40 ------- 2 0.0.0.0 1.0.1.0 13 43
r 10.17464 0 1 ack 40 ------- 2 0.0.0.0 1.0.1.0 13 43
+ 10.180929 1 0 tcp 1060 ------- 2 1.0.1.0 0.0.0.0 14 24
- 10.180929 1 0 tcp 1060 ------- 2 1.0.1.0 0.0.0.0 14 24
r 10.182833578 _2_ AGT  --- 43 ack 40 [13a 1 0 800] ------- [0:0 4194305:0 30 4194305] [13 0] 1 0
s 10.182833578 _2_ AGT  --- 44 tcp 1040 [0 0 0 0] ------- [4194305:0 0:0 32 0] [27 0] 0 0
s 10.182833578 _2_ AGT  --- 45 tcp 1040 [0 0 0 0] ------- [4194305:0 0:0 32 0] [28 0] 0 0
r 10.184625 1 0 tcp 1060 ------- 2 1.0.1.0 0.0.0.0 14 24
+ 10.184625 0 1 ack 40 ------- 2 0.0.0.0 1.0.1.0 14 46
- 10.184625 0 1 ack 40 ------- 2 0.0.0.0 1.0.1.0 14 46
r 10.186689 0 1 ack 40 ------- 2 0.0.0.0 1.0.1.0 14 46
+ 10.193018 1 0 tcp 1060 ------- 2 1.0.1.0 0.0.0.0 15 26
- 10.193018 1 0 tcp 1060 ------- 2 1.0.1.0 0.0.0.0 15 26
r 10.196714 1 0 tcp 1060 ------- 2 1.0.1.0 0.0.0.0 15 26
+ 10.196714 0 1 ack 40 ------- 2 0.0.0.0 1.0.1.0 15 47
- 10.196714 0 1 ack 40 ------- 2 0.0.0.0 1.0.1.0 15 47
r 10.198778 0 1 ack 40 ------- 2 0.0.0.0 1.0.1.0 15 47
+ 10.203243 1 0 tcp 1060 ------- 2 1.0.1.0 0.0.0.0 16 27
- 10.203243 1 0 tcp 1060 ------- 2 1.0.1.0 0.0.0.0 16 27
r 10.206939 1 0 tcp 1060 ------- 2 1.0.1.0 0.0.0.0 16 27
+ 10.206939 0 1 ack 40 ------- 2 0.0.0.0 1.0.1.0 16 48
- 10.206939 0 1 ack 40 ------- 2 0.0.0.0 1.0.1.0 16 48
r 10.209003 0 1 ack 40 ------- 2 0.0.0.0 1.0.1.0 16 48
+ 10.213348 1 0 tcp 1060 ------- 2 1.0.1.0 0.0.0.0 17 29
- 10.213348 1 0 tcp 1060 ------- 2 1.0.1.0 0.0.0.0 17 29
r 10.215292779 _2_ AGT  --- 46 ack 40 [13a 1 0 800] ------- [0:0 4194305:0 30 4194305] [14 0] 1 0
s 10.215292779 _2_ AGT  --- 49 tcp 1040 [0 0 0 0] ------- [4194305:0 0:0 32 0] [29 0] 0 0
s 10.215292779 _2_ AGT  --- 50 tcp 1040 [0 0 0 0] ------- [4194305:0 0:0 32 0] [30 0] 0 0
r 10.217044 1 0 tcp 1060 ------- 2 1.0.1.0 0.0.0.0 17 29
+ 10.217044 0 1 ack 40 ------- 2 0.0.0.0 1.0.1.0 17 51
- 10.217044 0 1 ack 40 ------- 2 0.0.0.0 1.0.1.0 17 51
r 10.217157693 _2_ AGT  --- 47 ack 40 [13a 1 0 800] ------- [0:0 4194305:0 30 4194305] [15 0] 1 0
s 10.217157693 _2_ AGT  --- 52 tcp 1040 [0 0 0 0] ------- [4194305:0 0:0 32 0] [31 0] 0 0
s 10.217157693 _2_ AGT  --- 53 tcp 1040 [0 0 0 0] ------- [4194305:0 0:0 32 0] [32 0] 0 0
r 10.219108 0 1 ack 40 ------- 2 0.0.0.0 1.0.1.0 17 51
+ 10.227282 1 0 tcp 1060 ------- 2 1.0.1.0 0.0.0.0 18 30
- 10.227282 1 0 tcp 1060 ------- 2 1.0.1.0 0.0.0.0 18 30
r 10.230978 1 0 tcp 1060 ------- 2 1.0.1.0 0.0.0.0 18 30
+ 10.230978 0 1 ack 40 ------- 2 0.0.0.0 1.0.1.0 18 54
- 10.230978 0 1 ack 40 ------- 2 0.0.0.0 1.0.1.0 18 54
r 10.233042 0 1 ack 40 ------- 2 0.0.0.0 1.0.1.0 18 54
+ 10.237387 1 0 tcp 1060 ------- 2 1.0.1.0 0.0.0.0 19 33
- 10.237387 1 0 tcp 1060 ------- 2 1.0.1.0 0.0.0.0 19 33
r 10.240298437 _2_ AGT  --- 48 ack 40 [13a 1 0 800] ------- [0:0 4194305:0 30 4194305] [16 0] 1 0
s 10.240298437 _2_ AGT  --- 55 tcp 1040 [0 0 0 0] ------- [4194305:0 0:0 32 0] [33 0] 0 0
s 10.240298437 _2_ AGT  --- 56 tcp 1040 [0 0 0 0] ------- [4194305:0 0:0 32 0] [34 0] 0 0
r 10.241083 1 0 tcp 1060 ------- 2 1.0.1.0 0.0.0.0 19 33
+ 10.241083 0 1 ack 40 ------- 2 0.0.0.0 1.0.1.0 19 57
- 10.241083 0 1 ack 40 ------- 2 0.0.0.0 1.0.1.0 19 57
r 10.242383352 _2_ AGT  --- 51 ack 40 [13a 1 0 800] ------- [0:0 4194305:0 30 4194305] [17 0] 1 0
s 10.242383352 _2_ AGT  --- 58 tcp 1040 [0 0 0 0] ------- [4194305:0 0:0 32 0] [35 0] 0 0
s 10.242383352 _2_ AGT  --- 59 tcp 1040 [0 0 0 0] ------- [4194305:0 0:0 32 0] [36 0] 0 0
r 10.243147 0 1 ack 40 ------- 2 0.0.0.0 1.0.1.0 19 57
r 10.244408266 _2_ AGT  --- 54 ack 40 [13a 1 0 800] ------- [0:0 4194305:0 30 4194305] [18 0] 1 0
s 10.244408266 _2_ AGT  --- 60 tcp 1040 [0 0 0 0] ------- [4194305:0 0:0 32 0] [37 0] 0 0
s 10.244408266 _2_ AGT  --- 61 tcp 1040 [0 0 0 0] ------- [4194305:0 0:0 32 0] [38 0] 0 0
r 10.246293181 _2_ AGT  --- 57 ack 40 [13a 1 0 800] ------- [0:0 4194305:0 30 4194305] [19 0] 1 0
s 10.246293181 _2_ AGT  --- 62 tcp 1040 [0 0 0 0] ------- [4194305:0 0:0 32 0] [39 0] 0 0
+ 10.256358 1 0 tcp 1060 ------- 2 1.0.1.0 0.0.0.0 20 34
- 10.256358 1 0 tcp 1060 ------- 2 1.0.1.0 0.0.0.0 20 34
r 10.260054 1 0 tcp 1060 ------- 2 1.0.1.0 0.0.0.0 20 34
+ 10.260054 0 1 ack 40 ------- 2 0.0.0.0 1.0.1.0 20 63
- 10.260054 0 1 ack 40 ------- 2 0.0.0.0 1.0.1.0 20 63
r 10.262118 0 1 ack 40 ------- 2 0.0.0.0 1.0.1.0 20 63
+ 10.266943 1 0 tcp 1060 ------- 2 1.0.1.0 0.0.0.0 21 36
- 10.266943 1 0 tcp 1060 ------- 2 1.0.1.0 0.0.0.0 21 36
r 10.270639 1 0 tcp 1060 ------- 2 1.0.1.0 0.0.0.0 21 36
+ 10.270639 0 1 ack 40 ------- 2 0.0.0.0 1.0.1.0 21 64
- 10.270639 0 1 ack 40 ------- 2 0.0.0.0 1.0.1.0 21 64
r 10.272703 0 1 ack 40 ------- 2 0.0.0.0 1.0.1.0 21 64
+ 10.276988 1 0 tcp 1060 ------- 2 1.0.1.0 0.0.0.0 22 37
- 10.276988 1 0 tcp 1060 ------- 2 1.0.1.0 0.0.0.0 22 37
r 10.278872382 _2_ AGT  --- 63 ack 40 [13a 1 0 800] ------- [0:0 4194305:0 30 4194305] [20 0] 1 0
s 10.278872382 _2_ AGT  --- 65 tcp 1040 [0 0 0 0] ------- [4194305:0 0:0 32 0] [40 0] 0 0
r 10.280684 1 0 tcp 1060 ------- 2 1.0.1.0 0.0.0.0 22 37
+ 10.280684 0 1 ack 40 ------- 2 0.0.0.0 1.0.1.0 22 66
- 10.280684 0 1 ack 40 ------- 2 0.0.0.0 1.0.1.0 22 66
r 10.280817297 _2_ AGT  --- 64 ack 40 [13a 1 0 800] ------- [0:0 4194305:0 30 4194305] [21 0] 1 0
s 10.280817297 _2_ AGT  --- 67 tcp 1040 [0 0 0 0] ------- [4194305:0 0:0 32 0] [41 0] 0 0
r 10.282748 0 1 ack 40 ------- 2 0.0.0.0 1.0.1.0 22 66
+ 10.291222 1 0 tcp 1060 ------- 2 1.0.1.0 0.0.0.0 23 38
- 10.291222 1 0 tcp 1060 ------- 2 1.0.1.0 0.0.0.0 23 38
r 10.293226668 _2_ AGT  --- 66 ack 40 [13a 1 0 800] ------- [0:0 4194305:0 30 4194305] [22 0] 1 0
s 10.293226668 _2_ AGT  --- 68 tcp 1040 [0 0 0 0] ------- [4194305:0 0:0 32 0] [42 0] 0 0
r 10.294918 1 0 tcp 1060 ------- 2 1.0.1.0 0.0.0.0 23 38
+ 10.294918 0 1 ack 40 ------- 2 0.0.0.0 1.0.1.0 23 69
- 10.294918 0 1 ack 40 ------- 2 0.0.0.0 1.0.1.0 23 69
r 10.296982 0 1 ack 40 ------- 2 0.0.0.0 1.0.1.0 23 69
+ 10.303471 1 0 tcp 1060 ------- 2 1.0.1.0 0.0.0.0 24 39
- 10.303471 1 0 tcp 1060 ------- 2 1.0.1.0 0.0.0.0 24 39
r 10.305576040 _2_ AGT  --- 69 ack 40 [13a 1 0 800] ------- [0:0 4194305:0 30 4194305] [23 0] 1 0
s 10.305576040 _2_ AGT  --- 70 tcp 1040 [0 0 0 0] ------- [4194305:0 0:0 32 0] [43 0] 0 0
r 10.307167 1 0 tcp 1060 ------- 2 1.0.1.0 0.0.0.0 24 39
+ 10.307167 0 1 ack 40 ------- 2 0.0.0.0 1.0.1.0 24 71
- 10.307167 0 1 ack 40 ------- 2 0.0.0.0 1.0.1.0 24 71
r 10.309231 0 1 ack 40 ------- 2 0.0.0.0 1.0.1.0 24 71
+ 10.315581 1 0 tcp 1060 ------- 2 1.0.1.0 0.0.0.0 25 41
- 10.315581 1 0 tcp 1060 ------- 2 1.0.1.0 0.0.0.0 25 41
r 10.319277 1 0 tcp 1060 ------- 2 1.0.1.0 0.0.0.0 25 41
+ 10.319277 0 1 ack 40 ------- 2 0.0.0.0 1.0.1.0 25 72
- 10.319277 0 1 ack 40 ------- 2 0.0.0.0 1.0.1.0 25 72
r 10.321341 0 1 ack 40 ------- 2 0.0.0.0 1.0.1.0 25 72
+ 10.326632 1 0 tcp 1060 ------- 2 1.0.1.0 0.0.0.0 26 42
- 10.326632 1 0 tcp 1060 ------- 2 1.0.1.0 0.0.0.0 26 42
r 10.328776327 _2_ AGT  --- 71 ack 40 [13a 1 0 800] ------- [0:0 4194305:0 30 4194305] [24 0] 1 0
s 10.328776327 _2_ AGT  --- 73 tcp 1040 [0 0 0 0] ------- [4194305:0 0:0 32 0] [44 0] 0 0
r 10.330328 1 0 tcp 1060 ------- 2 1.0.1.0 0.0.0.0 26 42
+ 10.330328 0 1 ack 40 ------- 2 0.0.0.0 1.0.1.0 26 74
- 10.330328 0 1 ack 40 ------- 2 0.0.0.0 1.0.1.0 26 74
r 10.330821241 _2_ AGT  --- 72 ack 40 [13a 1 0 800] ------- [0:0 4194305:0 30 4194305] [25 0] 1 0
s 10.330821241 _2_ AGT  --- 75 tcp 1040 [0 0 0 0] ------- [4194305:0 0:0 32 0] [45 0] 0 0
r 10.332392 0 1 ack 40 ------- 2 0.0.0.0 1.0.1.0 26 74
+ 10.340846 1 0 tcp 1060 ------- 2 1.0.1.0 0.0.0.0 27 44
- 10.340846 1 0 tcp 1060 ------- 2 1.0.1.0 0.0.0.0 27 44
r 10.342810613 _2_ AGT  --- 74 ack 40 [13a 1 0 800] ------- [0:0 4194305:0 30 4194305] [26 0] 1 0
s 10.342810613 _2_ AGT  --- 76 tcp 1040 [0 0 0 0] ------- [4194305:0 0:0 32 0] [46 0] 0 0
r 10.344542 1 0 tcp 1060 ------- 2 1.0.1.0 0.0.0.0 27 44
+ 10.344542 0 1 ack 40 ------- 2 0.0.0.0 1.0.1.0 27 77
- 10.344542 0 1 ack 40 ------- 2 0.0.0.0 1.0.1.0 27 77
r 10.346606 0 1 ack 40 ------- 2 0.0.0.0 1.0.1.0 27 77
+ 10.352815 1 0 tcp 1060 ------- 2 1.0.1.0 0.0.0.0 28 45
- 10.352815 1 0 tcp 1060 ------- 2 1.0.1.0 0.0.0.0 28 45
r 10.356511 1 0 tcp 1060 ------- 2 1.0.1.0 0.0.0.0 28 45
+ 10.356511 0 1 ack 40 ------- 2 0.0.0.0 1.0.1.0 28 78
- 10.356511 0 1 ack 40 ------- 2 0.0.0.0 1.0.1.0 28 78
r 10.358575 0 1 ack 40 ------- 2 0.0.0.0 1.0.1.0 28 78
+ 10.3632 1 0 tcp 1060 ------- 2 1.0.1.0 0.0.0.0 29 49
- 10.3632 1 0 tcp 1060 ------- 2 1.0.1.0 0.0.0.0 29 49
r 10.365064900 _2_ AGT  --- 77 ack 40 [13a 1 0 800] ------- [0:0 4194305:0 30 4194305] [27 0] 1 0
s 10.365064900 _2_ AGT  --- 79 tcp 1040 [0 0 0 0] ------- [4194305:0 0:0 32 0] [47 0] 0 0
r 10.366896 1 0 tcp 1060 ------- 2 1.0.1.0 0.0.0.0 29 49
+ 10.366896 0 1 ack 40 ------- 2 0.0.0.0 1.0.1.0 29 80
- 10.366896 0 1 ack 40 ------- 2 0.0.0.0 1.0.1.0 29 80
r 10.36896 0 1 ack 40 ------- 2 0.0.0.0 1.0.1.0 29 80
+ 10.37513 1 0 tcp 1060 ------- 2 1.0.1.0 0.0.0.0 30 50
- 10.37513 1 0 tcp 1060 ------- 2 1.0.1.0 0.0.0.0 30 50
r 10.377034271 _2_ AGT  --- 78 ack 40 [13a 1 0 800] ------- [0:0 4194305:0 30 4194305] [28 0] 1 0
s 10.377034271 _2_ AGT  --- 81 tcp 1040 [0 0 0 0] ------- [4194305:0 0:0 32 0] [48 0] 0 0
r 10.378826 1 0 tcp 1060 ------- 2 1.0.1.0 0.0.0.0 30 50
+ 10.378826 0 1 ack 40 ------- 2 0.0.0.0 1.0.1.0 30 82
- 10.378826 0 1 ack 40 ------- 2 0.0.0.0 1.0.1.0 30 82
r 10.378859186 _2_ AGT  --- 80 ack 40 [13a 1 0 800] ------- [0:0 4194305:0 30 4194305] [29 0] 1 0
s 10.378859186 _2_ AGT  --- 83 tcp 1040 [0 0 0 0] ------- [4194305:0 0:0 32 0] [49 0] 0 0
r 10.38089 0 1 ack 40 ------- 2 0.0.0.0 1.0.1.0 30 82
+ 10.388984 1 0 tcp 1060 ------- 2 1.0.1.0 0.0.0.0 31 52
- 10.388984 1 0 tcp 1060 ------- 2 1.0.1.0 0.0.0.0 31 52
r 10.39268 1 0 tcp 1060 ------- 2 1.0.1.0 0.0.0.0 31 52
+ 10.39268 0 1 ack 40 ------- 2 0.0.0.0 1.0.1.0 31 84
- 10.39268 0 1 ack 40 ------- 2 0.0.0.0 1.0.1.0 31 84
r 10.394744 0 1 ack 40 ------- 2 0.0.0.0 1.0.1.0 31 84
+ 10.399289 1 0 tcp 1060 ------- 2 1.0.1.0 0.0.0.0 32 53
- 10.399289 1 0 tcp 1060 ------- 2 1.0.1.0 0.0.0.0 32 53
r 10.401153472 _2_ AGT  --- 82 ack 40 [13a 1 0 800] ------- [0:0 4194305:0 30 4194305] [30 0] 1 0
s 10.401153472 _2_ AGT  --- 85 tcp 1040 [0 0 0 0] ------- [4194305:0 0:0 32 0] [50 0] 0 0
r 10.402985 1 0 tcp 1060 ------- 2 1.0.1.0 0.0.0.0 32 53
+ 10.402985 0 1 ack 40 ------- 2 0.0.0.0 1.0.1.0 32 86
- 10.402985 0 1 ack 40 ------- 2 0.0.0.0 1.0.1.0 32 86
r 10.405049 0 1 ack 40 ------- 2 0.0.0.0 1.0.1.0 32 86
+ 10.411518 1 0 tcp 1060 ------- 2 1.0.1.0 0.0.0.0 33 55
- 10.411518 1 0 tcp 1060 ------- 2 1.0.1.0 0.0.0.0 33 55
r 10.413482844 _2_ AGT  --- 84 ack 40 [13a 1 0 800] ------- [0:0 4194305:0 30 4194305] [31 0] 1 0
s 10.413482844 _2_ AGT  --- 87 tcp 1040 [0 0 0 0] ------- [4194305:0 0:0 32 0] [51 0] 0 0
r 10.415214 1 0 tcp 1060 ------- 2 1.0.1.0 0.0.0.0 33 55
+ 10.415214 0 1 ack 40 ------- 2 0.0.0.0 1.0.1.0 33 88
- 10.415214 0 1 ack 40 ------- 2 0.0.0.0 1.0.1.0 33 88
r 10.415467759 _2_ AGT  --- 86 ack 40 [13a 1 0 800] ------- [0:0 4194305:0 30 4194305] [32 0] 1 0
s 10.415467759 _2_ AGT  --- 89 tcp 1040 [0 0 0 0] ------- [4194305:0 0:0 32 0] [52 0] 0 0
r 10.417278 0 1 ack 40 ------- 2 0.0.0.0 1.0.1.0 33 88
+ 10.425472 1 0 tcp 1060 ------- 2 1.0.1.0 0.0.0.0 34 56
- 10.425472 1 0 tcp 1060 ------- 2 1.0.1.0 0.0.0.0 34 56
r 10.429168 1 0 tcp 1060 ------- 2 1.0.1.0 0.0.0.0 34 56
+ 10.429168 0 1 ack 40 ------- 2 0.0.0.0 1.0.1.0 34 90
- 10.429168 0 1 ack 40 ------- 2 0.0.0.0 1.0.1.0 34 90
r 10.431232 0 1 ack 40 ------- 2 0.0.0.0 1.0.1.0 34 90
+ 10.435557 1 0 tcp 1060 ------- 2 1.0.1.0 0.0.0.0 35 58
- 10.435557 1 0 tcp 1060 ------- 2 1.0.1.0 0.0.0.0 35 58
r 10.439253 1 0 tcp 1060 ------- 2 1.0.1.0 0.0.0.0 35 58
+ 10.439253 0 1 ack 40 ------- 2 0.0.0.0 1.0.1.0 35 91
- 10.439253 0 1 ack 40 ------- 2 0.0.0.0 1.0.1.0 35 91
r 10.441317 0 1 ack 40 ------- 2 0.0.0.0 1.0.1.0 35 91
+ 10.445542 1 0 tcp 1060 ------- 2 1.0.1.0 0.0.0.0 36 59
- 10.445542 1 0 tcp 1060 ------- 2 1.0.1.0 0.0.0.0 36 59
r 10.449238 1 0 tcp 1060 ------- 2 1.0.1.0 0.0.0.0 36 59
+ 10.449238 0 1 ack 40 ------- 2 0.0.0.0 1.0.1.0 36 92
- 10.449238 0 1 ack 40 ------- 2 0.0.0.0 1.0.1.0 36 92
r 10.451302 0 1 ack 40 ------- 2 0.0.0.0 1.0.1.0 36 92
+ 10.455587 1 0 tcp 1060 ------- 2 1.0.1.0 0.0.0.0 37 60
- 10.455587 1 0 tcp 1060 ------- 2 1.0.1.0 0.0.0.0 37 60
r 10.457511874 _2_ AGT  --- 88 ack 40 [13a 1 0 800] ------- [0:0 4194305:0 30 4194305] [33 0] 1 0
s 10.457511874 _2_ AGT  --- 93 tcp 1040 [0 0 0 0] ------- [4194305:0 0:0 32 0] [53 0] 0 0
r 10.459283 1 0 tcp 1060 ------- 2 1.0.1.0 0.0.0.0 37 60
+ 10.459283 0 1 ack 40 ------- 2 0.0.0.0 1.0.1.0 37 94
- 10.459283 0 1 ack 40 ------- 2 0.0.0.0 1.0.1.0 37 94
r 10.461347 0 1 ack 40 ------- 2 0.0.0.0 1.0.1.0 37 94
+ 10.467937 1 0 tcp 1060 ------- 2 1.0.1.0 0.0.0.0 38 61
- 10.467937 1 0 tcp 1060 ------- 2 1.0.1.0 0.0.0.0 38 61
r 10.469941246 _2_ AGT  --- 90 ack 40 [13a 1 0 800] ------- [0:0 4194305:0 30 4194305] [34 0] 1 0
s 10.469941246 _2_ AGT  --- 95 tcp 1040 [0 0 0 0] ------- [4194305:0 0:0 32 0] [54 0] 0 0
r 10.471633 1 0 tcp 1060 ------- 2 1.0.1.0 0.0.0.0 38 61
+ 10.471633 0 1 ack 40 ------- 2 0.0.0.0 1.0.1.0 38 96
- 10.471633 0 1 ack 40 ------- 2 0.0.0.0 1.0.1.0 38 96
r 10.471786161 _2_ AGT  --- 91 ack 40 [13a 1 0 800] ------- [0:0 4194305:0 30 4194305] [35 0] 1 0
s 10.471786161 _2_ AGT  --- 97 tcp 1040 [0 0 0 0] ------- [4194305:0 0:0 32 0] [55 0] 0 0
r 10.473631075 _2_ AGT  --- 92 ack 40 [13a 1 0 800] ------- [0:0 4194305:0 30 4194305] [36 0] 1 0
s 10.473631075 _2_ AGT  --- 98 tcp 1040 [0 0 0 0] ------- [4194305:0 0:0 32 0] [56 0] 0 0
r 10.473697 0 1 ack 40 ------- 2 0.0.0.0 1.0.1.0 38 96
r 10.475515990 _2_ AGT  --- 94 ack 40 [13a 1 0 800] ------- [0:0 4194305:0 30 4194305] [37 0] 1 0
s 10.475515990 _2_ AGT  --- 99 tcp 1040 [0 0 0 0] ------- [4194305:0 0:0 32 0] [57 0] 0 0
+ 10.485641 1 0 tcp 1060 ------- 2 1.0.1.0 0.0.0.0 39 62
- 10.485641 1 0 tcp 1060 ------- 2 1.0.1.0 0.0.0.0 39 62
r 10.489337 1 0 tcp 1060 ------- 2 1.0.1.0 0.0.0.0 39 62
+ 10.489337 0 1 ack 40 ------- 2 0.0.0.0 1.0.1.0 39 100
- 10.489337 0 1 ack 40 ------- 2 0.0.0.0 1.0.1.0 39 100
r 10.491401 0 1 ack 40 ------- 2 0.0.0.0 1.0.1.0 39 100
+ 10.495646 1 0 tcp 1060 ------- 2 1.0.1.0 0.0.0.0 40 65
- 10.495646 1 0 tcp 1060 ------- 2 1.0.1.0 0.0.0.0 40 65
r 10.499342 1 0 tcp 1060 ------- 2 1.0.1.0 0.0.0.0 40 65
+ 10.499342 0 1 ack 40 ------- 2 0.0.0.0 1.0.1.0 40 101
- 10.499342 0 1 ack 40 ------- 2 0.0.0.0 1.0.1.0 40 101
r 10.501406 0 1 ack 40 ------- 2 0.0.0.0 1.0.1.0 40 101
+ 10.505651 1 0 tcp 1060 ------- 2 1.0.1.0 0.0.0.0 41 67
- 10.505651 1 0 tcp 1060 ------- 2 1.0.1.0 0.0.0.0 41 67
r 10.507555191 _2_ AGT  --- 96 ack 40 [13a 1 0 800] ------- [0:0 4194305:0 30 4194305] [38 0] 1 0
s 10.507555191 _2_ AGT  --- 102 tcp 1040 [0 0 0 0] ------- [4194305:0 0:0 32 0] [58 0] 0 0
r 10.509347 1 0 tcp 1060 ------- 2 1.0.1.0 0.0.0.0 41 67
+ 10.509347 0 1 ack 40 ------- 2 0.0.0.0 1.0.1.0 41 103
- 10.509347 0 1 ack 40 ------- 2 0.0.0.0 1.0.1.0 41 103
r 10.511411 0 1 ack 40 ------- 2 0.0.0.0 1.0.1.0 41 103
+ 10.51784 1 0 tcp 1060 ------- 2 1.0.1.0 0.0.0.0 42 68
- 10.51784 1 0 tcp 1060 ------- 2 1.0.1.0 0.0.0.0 42 68
r 10.519824563 _2_ AGT  --- 100 ack 40 [13a 1 0 800] ------- [0:0 4194305:0 30 4194305] [39 0] 1 0
s 10.519824563 _2_ AGT  --- 104 tcp 1040 [0 0 0 0] ------- [4194305:0 0:0 32 0] [59 0] 0 0
r 10.521536 1 0 tcp 1060 ------- 2 1.0.1.0 0.0.0.0 42 68
+ 10.521536 0 1 ack 40 ------- 2 0.0.0.0 1.0.1.0 42 105
- 10.521536 0 1 ack 40 ------- 2 0.0.0.0 1.0.1.0 42 105
r 10.5236 0 1 ack 40 ------- 2 0.0.0.0 1.0.1.0 42 105
+ 10.530049 1 0 tcp 1060 ------- 2 1.0.1.0 0.0.0.0 43 70
- 10.530049 1 0 tcp 1060 ------- 2 1.0.1.0 0.0.0.0 43 70
r 10.532133935 _2_ AGT  --- 101 ack 40 [13a 1 0 800] ------- [0:0 4194305:0 30 4194305] [40 0] 1 0
s 10.532133935 _2_ AGT  --- 106 tcp 1040 [0 0 0 0] ------- [4194305:0 0:0 32 0] [60 0] 0 0
r 10.533745 1 0 tcp 1060 ------- 2 1.0.1.0 0.0.0.0 43 70
+ 10.533745 0 1 ack 40 ------- 2 0.0.0.0 1.0.1.0 43 107
- 10.533745 0 1 ack 40 ------- 2 0.0.0.0 1.0.1.0 43 107
r 10.535809 0 1 ack 40 ------- 2 0.0.0.0 1.0.1.0 43 107
+ 10.542179 1 0 tcp 1060 ------- 2 1.0.1.0 0.0.0.0 44 73
- 10.542179 1 0 tcp 1060 ------- 2 1.0.1.0 0.0.0.0 44 73
r 10.544143307 _2_ AGT  --- 103 ack 40 [13a 1 0 800] ------- [0:0 4194305:0 30 4194305] [41 0] 1 0
s 10.544143307 _2_ AGT  --- 108 tcp 1040 [0 0 0 0] ------- [4194305:0 0:0 32 0] [61 0] 0 0
r 10.545875 1 0 tcp 1060 ------- 2 1.0.1.0 0.0.0.0 44 73
+ 10.545875 0 1 ack 40 ------- 2 0.0.0.0 1.0.1.0 44 109
- 10.545875 0 1 ack 40 ------- 2 0.0.0.0 1.0.1.0 44 109
r 10.546148221 _2_ AGT  --- 105 ack 40 [13a 1 0 800] ------- [0:0 4194305:0 30 4194305] [42 0] 1 0
s 10.546148221 _2_ AGT  --- 110 tcp 1040 [0 0 0 0] ------- [4194305:0 0:0 32 0] [62 0] 0 0
r 10.547939 0 1 ack 40 ------- 2 0.0.0.0 1.0.1.0 44 109
r 10.548113136 _2_ AGT  --- 107 ack 40 [13a 1 0 800] ------- [0:0 4194305:0 30 4194305] [43 0] 1 0
s 10.548113136 _2_ AGT  --- 111 tcp 1040 [0 0 0 0] ------- [4194305:0 0:0 32 0] [63 0] 0 0
+ 10.558178 1 0 tcp 1060 ------- 2 1.0.1.0 0.0.0.0 45 75
- 10.558178 1 0 tcp 1060 ------- 2 1.0.1.0 0.0.0.0 45 75
r 10.561874 1 0 tcp 1060 ------- 2 1.0.1.0 0.0.0.0 45 75
+ 10.561874 0 1 ack 40 ------- 2 0.0.0.0 1.0.1.0 45 112
- 10.561874 0 1 ack 40 ------- 2 0.0.0.0 1.0.1.0 45 112
r 10.563938 0 1 ack 40 ------- 2 0.0.0.0 1.0.1.0 45 112
+ 10.568163 1 0 tcp 1060 ------- 2 1.0.1.0 0.0.0.0 46 76
- 10.568163 1 0 tcp 1060 ------- 2 1.0.1.0 0.0.0.0 46 76
r 10.571859 1 0 tcp 1060 ------- 2 1.0.1.0 0.0.0.0 46 76
+ 10.571859 0 1 ack 40 ------- 2 0.0.0.0 1.0.1.0 46 113
- 10.571859 0 1 ack 40 ------- 2 0.0.0.0 1.0.1.0 46 113
r 10.573923 0 1 ack 40 ------- 2 0.0.0.0 1.0.1.0 46 113
+ 10.578248 1 0 tcp 1060 ------- 2 1.0.1.0 0.0.0.0 47 79
- 10.578248 1 0 tcp 1060 ------- 2 1.0.1.0 0.0.0.0 47 79
r 10.581944 1 0 tcp 1060 ------- 2 1.0.1.0 0.0.0.0 47 79
+ 10.581944 0 1 ack 40 ------- 2 0.0.0.0 1.0.1.0 47 114
- 10.581944 0 1 ack 40 ------- 2 0.0.0.0 1.0.1.0 47 114
r 10.584008 0 1 ack 40 ------- 2 0.0.0.0 1.0.1.0 47 114
+ 10.588233 1 0 tcp 1060 ------- 2 1.0.1.0 0.0.0.0 48 81
- 10.588233 1 0 tcp 1060 ------- 2 1.0.1.0 0.0.0.0 48 81
r 10.590117251 _2_ AGT  --- 109 ack 40 [13a 1 0 800] ------- [0:0 4194305:0 30 4194305] [44 0] 1 0
s 10.590117251 _2_ AGT  --- 115 tcp 1040 [0 0 0 0] ------- [4194305:0 0:0 32 0] [64 0] 0 0
r 10.591929 1 0 tcp 1060 ------- 2 1.0.1.0 0.0.0.0 48 81
+ 10.591929 0 1 ack 40 ------- 2 0.0.0.0 1.0.1.0 48 116
- 10.591929 0 1 ack 40 ------- 2 0.0.0.0 1.0.1.0 48 116
r 10.593993 0 1 ack 40 ------- 2 0.0.0.0 1.0.1.0 48 116
+ 10.600602 1 0 tcp 1060 ------- 2 1.0.1.0 0.0.0.0 49 83
- 10.600602 1 0 tcp 1060 ------- 2 1.0.1.0 0.0.0.0 49 83
r 10.602486623 _2_ AGT  --- 112 ack 40 [13a 1 0 800] ------- [0:0 4194305:0 30 4194305] [45 0] 1 0
s 10.602486623 _2_ AGT  --- 117 tcp 1040 [0 0 0 0] ------- [4194305:0 0:0 32 0] [65 0] 0 0
r 10.604298 1 0 tcp 1060 ------- 2 1.0.1.0 0.0.0.0 49 83
+ 10.604298 0 1 ack 40 ------- 2 0.0.0.0 1.0.1.0 49 118
- 10.604298 0 1 ack 40 ------- 2 0.0.0.0 1.0.1.0 49 118
r 10.606362 0 1 ack 40 ------- 2 0.0.0.0 1.0.1.0 49 118
+ 10.613011 1 0 tcp 1060 ------- 2 1.0.1.0 0.0.0.0 50 85
- 10.613011 1 0 tcp 1060 ------- 2 1.0.1.0 0.0.0.0 50 85
r 10.614875995 _2_ AGT  --- 113 ack 40 [13a 1 0 800] ------- [0:0 4194305:0 30 4194305] [46 0] 1 0
s 10.614875995 _2_ AGT  --- 119 tcp 1040 [0 0 0 0] ------- [4194305:0 0:0 32 0] [66 0] 0 0
r 10.616707 1 0 tcp 1060 ------- 2 1.0.1.0 0.0.0.0 50 85
+ 10.616707 0 1 ack 40 ------- 2 0.0.0.0 1.0.1.0 50 120
- 10.616707 0 1 ack 40 ------- 2 0.0.0.0 1.0.1.0 50 120
r 10.618771 0 1 ack 40 ------- 2 0.0.0.0 1.0.1.0 50 120
+ 10.625041 1 0 tcp 1060 ------- 2 1.0.1.0 0.0.0.0 51 87
- 10.625041 1 0 tcp 1060 ------- 2 1.0.1.0 0.0.0.0 51 87
r 10.628737 1 0 tcp 1060 ------- 2 1.0.1.0 0.0.0.0 51 87
+ 10.628737 0 1 ack 40 ------- 2 0.0.0.0 1.0.1.0 51 121
- 10.628737 0 1 ack 40 ------- 2 0.0.0.0 1.0.1.0 51 121
r 10.630801 0 1 ack 40 ------- 2 0.0.0.0 1.0.1.0 51 121
+ 10.635166 1 0 tcp 1060 ------- 2 1.0.1.0 0.0.0.0 52 89
- 10.635166 1 0 tcp 1060 ------- 2 1.0.1.0 0.0.0.0 52 89
r 10.637190281 _2_ AGT  --- 114 ack 40 [13a 1 0 800] ------- [0:0 4194305:0 30 4194305] [47 0] 1 0
s 10.637190281 _2_ AGT  --- 122 tcp 1040 [0 0 0 0] ------- [4194305:0 0:0 32 0] [67 0] 0 0
r 10.638862 1 0 tcp 1060 ------- 2 1.0.1.0 0.0.0.0 52 89
+ 10.638862 0 1 ack 40 ------- 2 0.0.0.0 1.0.1.0 52 123
- 10.638862 0 1 ack 40 ------- 2 0.0.0.0 1.0.1.0 52 123
r 10.640926 0 1 ack 40 ------- 2 0.0.0.0 1.0.1.0 52 123
+ 10.647235 1 0 tcp 1060 ------- 2 1.0.1.0 0.0.0.0 53 93
- 10.647235 1 0 tcp 1060 ------- 2 1.0.1.0 0.0.0.0 53 93
r 10.650931 1 0 tcp 1060 ------- 2 1.0.1.0 0.0.0.0 53 93
+ 10.650931 0 1 ack 40 ------- 2 0.0.0.0 1.0.1.0 53 124
- 10.650931 0 1 ack 40 ------- 2 0.0.0.0 1.0.1.0 53 124
r 10.652995 0 1 ack 40 ------- 2 0.0.0.0 1.0.1.0 53 124
+ 10.65732 1 0 tcp 1060 ------- 2 1.0.1.0 0.0.0.0 54 95
- 10.65732 1 0 tcp 1060 ------- 2 1.0.1.0 0.0.0.0 54 95
r 10.661016 1 0 tcp 1060 ------- 2 1.0.1.0 0.0.0.0 54 95
+ 10.661016 0 1 ack 40 ------- 2 0.0.0.0 1.0.1.0 54 125
- 10.661016 0 1 ack 40 ------- 2 0.0.0.0 1.0.1.0 54 125
r 10.66308 0 1 ack 40 ------- 2 0.0.0.0 1.0.1.0 54 125
+ 10.667485 1 0 tcp 1060 ------- 2 1.0.1.0 0.0.0.0 55 97
- 10.667485 1 0 tcp 1060 ------- 2 1.0.1.0 0.0.0.0 55 97
r 10.671181 1 0 tcp 1060 ------- 2 1.0.1.0 0.0.0.0 55 97
+ 10.671181 0 1 ack 40 ------- 2 0.0.0.0 1.0.1.0 55 126
- 10.671181 0 1 ack 40 ------- 2 0.0.0.0 1.0.1.0 55 126
r 10.673245 0 1 ack 40 ------- 2 0.0.0.0 1.0.1.0 55 126
+ 10.67747 1 0 tcp 1060 ------- 2 1.0.1.0 0.0.0.0 56 98
- 10.67747 1 0 tcp 1060 ------- 2 1.0.1.0 0.0.0.0 56 98
r 10.679494397 _2_ AGT  --- 116 ack 40 [13a 1 0 800] ------- [0:0 4194305:0 30 4194305] [48 0] 1 0
s 10.679494397 _2_ AGT  --- 127 tcp 1040 [0 0 0 0] ------- [4194305:0 0:0 32 0] [68 0] 0 0
r 10.681166 1 0 tcp 1060 ------- 2 1.0.1.0 0.0.0.0 56 98
+ 10.681166 0 1 ack 40 ------- 2 0.0.0.0 1.0.1.0 56 128