s 0.029315548 _2_ MAC  --- 0 message 60 [0 ffffffff 1 0] ------- [4194305:255 2147483647:255 32 0] 
s 1.119777987 _1_ MAC  --- 1 message 60 [0 ffffffff 0 0] ------- [4194304:255 2147483647:255 32 0] 
s 5.000000000 _2_ AGT  --- 2 tcp 40 [0 0 0 0] ------- [4194305:0 0:0 32 0] [0 0] 0 0
s 8.000000000 _2_ AGT  --- 3 tcp 40 [0 0 0 0] ------- [4194305:0 0:0 32 0] [0 0] 0 0
