+ 3.574158 3 0 tcp 40 ------- 2 3.1 1.1 0 0
- 3.574158 3 0 tcp 40 ------- 2 3.1 1.1 0 0
r 3.576798 3 0 tcp 40 ------- 2 3.1 1.1 0 0
+ 3.576798 0 1 tcp 40 ------- 2 3.1 1.1 0 0
- 3.576798 0 1 tcp 40 ------- 2 3.1 1.1 0 0
r 3.578862 0 1 tcp 40 ------- 2 3.1 1.1 0 0
+ 3.578862 1 0 ack 40 ------- 2 1.1 3.1 0 1
- 3.578862 1 0 ack 40 ------- 2 1.1 3.1 0 1
r 3.580926 1 0 ack 40 ------- 2 1.1 3.1 0 1
+ 3.580926 0 3 ack 40 ------- 2 1.1 3.1 0 1
- 3.580926 0 3 ack 40 ------- 2 1.1 3.1 0 1
r 3.583566 0 3 ack 40 ------- 2 1.1 3.1 0 1
+ 3.583566 3 0 tcp 40 ------- 2 3.1 1.1 1 2
- 3.583566 3 0 tcp 40 ------- 2 3.1 1.1 1 2
+ 3.583566 3 0 tcp 83 ------- 2 3.1 1.1 1 3
- 3.584206 3 0 tcp 83 ------- 2 3.1 1.1 1 3
r 3.586206 3 0 tcp 40 ------- 2 3.1 1.1 1 2
+ 3.586206 0 1 tcp 40 ------- 2 3.1 1.1 1 2
- 3.586206 0 1 tcp 40 ------- 2 3.1 1.1 1 2
r 3.587534 3 0 tcp 83 ------- 2 3.1 1.1 1 3
+ 3.587534 0 1 tcp 83 ------- 2 3.1 1.1 1 3
- 3.587534 0 1 tcp 83 ------- 2 3.1 1.1 1 3
r 3.58827 0 1 tcp 40 ------- 2 3.1 1.1 1 2
r 3.589667 0 1 tcp 83 ------- 2 3.1 1.1 1 3
+ 3.589667 1 2 tcp 40 ------- 2 1.0 2.1 0 4
- 3.589667 1 2 tcp 40 ------- 2 1.0 2.1 0 4
r 3.591673 1 2 tcp 40 ------- 2 1.0 2.1 0 4
+ 3.591673 2 1 ack 40 ------- 2 2.1 1.0 0 5
- 3.591673 2 1 ack 40 ------- 2 2.1 1.0 0 5
r 3.59368 2 1 ack 40 ------- 2 2.1 1.0 0 5
+ 3.59368 1 2 tcp 40 ------- 2 1.0 2.1 1 6
- 3.59368 1 2 tcp 40 ------- 2 1.0 2.1 1 6
+ 3.59368 1 2 tcp 83 ------- 2 1.0 2.1 1 7
- 3.593686 1 2 tcp 83 ------- 2 1.0 2.1 1 7
r 3.595686 1 2 tcp 40 ------- 2 1.0 2.1 1 6
r 3.595699 1 2 tcp 83 ------- 2 1.0 2.1 1 7
+ 3.595699 2 1 ack 576 ------- 2 2.1 1.0 1 8
- 3.595699 2 1 ack 576 ------- 2 2.1 1.0 1 8
+ 3.595699 2 1 ack 576 ------- 2 2.1 1.0 537 9
- 3.595791 2 1 ack 576 ------- 2 2.1 1.0 537 9
r 3.597791 2 1 ack 576 ------- 2 2.1 1.0 1 8
+ 3.597791 1 2 tcp 40 ------- 2 1.0 2.1 44 10
- 3.597791 1 2 tcp 40 ------- 2 1.0 2.1 44 10
r 3.597884 2 1 ack 576 ------- 2 2.1 1.0 537 9
+ 3.597884 1 2 tcp 40 ------- 2 1.0 2.1 44 11
- 3.597884 1 2 tcp 40 ------- 2 1.0 2.1 44 11
r 3.599798 1 2 tcp 40 ------- 2 1.0 2.1 44 10
+ 3.599798 2 1 ack 576 ------- 2 2.1 1.0 1073 12
- 3.599798 2 1 ack 576 ------- 2 2.1 1.0 1073 12
+ 3.599798 2 1 ack 576 ------- 2 2.1 1.0 1609 13
r 3.59989 1 2 tcp 40 ------- 2 1.0 2.1 44 11
+ 3.59989 2 1 ack 576 ------- 2 2.1 1.0 2145 14
+ 3.59989 2 1 ack 576 ------- 2 2.1 1.0 2681 15
- 3.59989 2 1 ack 576 ------- 2 2.1 1.0 1609 13
- 3.599982 2 1 ack 576 ------- 2 2.1 1.0 2145 14
+ 3.6 1 0 ack 40 ------- 2 1.1 3.1 1 16
- 3.6 1 0 ack 40 ------- 2 1.1 3.1 1 16
- 3.600074 2 1 ack 576 ------- 2 2.1 1.0 2681 15
r 3.60189 2 1 ack 576 ------- 2 2.1 1.0 1073 12
+ 3.60189 1 2 tcp 40 ------- 2 1.0 2.1 44 17
- 3.60189 1 2 tcp 40 ------- 2 1.0 2.1 44 17
r 3.601982 2 1 ack 576 ------- 2 2.1 1.0 1609 13
+ 3.601982 1 2 tcp 40 ------- 2 1.0 2.1 44 18
- 3.601982 1 2 tcp 40 ------- 2 1.0 2.1 44 18
r 3.602064 1 0 ack 40 ------- 2 1.1 3.1 1 16
+ 3.602064 0 3 ack 40 ------- 2 1.1 3.1 1 16
- 3.602064 0 3 ack 40 ------- 2 1.1 3.1 1 16
r 3.602074 2 1 ack 576 ------- 2 2.1 1.0 2145 14
+ 3.602074 1 2 tcp 40 ------- 2 1.0 2.1 44 19
- 3.602074 1 2 tcp 40 ------- 2 1.0 2.1 44 19
r 3.602166 2 1 ack 576 ------- 2 2.1 1.0 2681 15
+ 3.602166 1 2 tcp 40 ------- 2 1.0 2.1 44 20
- 3.602166 1 2 tcp 40 ------- 2 1.0 2.1 44 20
r 3.603896 1 2 tcp 40 ------- 2 1.0 2.1 44 17
+ 3.603896 2 1 ack 576 ------- 2 2.1 1.0 3217 21
- 3.603896 2 1 ack 576 ------- 2 2.1 1.0 3217 21
+ 3.603896 2 1 ack 576 ------- 2 2.1 1.0 3753 22
r 3.603989 1 2 tcp 40 ------- 2 1.0 2.1 44 18
+ 3.603989 2 1 ack 576 ------- 2 2.1 1.0 4289 23
+ 3.603989 2 1 ack 576 ------- 2 2.1 1.0 4825 24
- 3.603989 2 1 ack 576 ------- 2 2.1 1.0 3753 22
r 3.604081 1 2 tcp 40 ------- 2 1.0 2.1 44 19
+ 3.604081 2 1 ack 576 ------- 2 2.1 1.0 5361 25
+ 3.604081 2 1 ack 576 ------- 2 2.1 1.0 5897 26
- 3.604081 2 1 ack 576 ------- 2 2.1 1.0 4289 23
r 3.604173 1 2 tcp 40 ------- 2 1.0 2.1 44 20
+ 3.604173 2 1 ack 576 ------- 2 2.1 1.0 6433 27
+ 3.604173 2 1 ack 576 ------- 2 2.1 1.0 6969 28
- 3.604173 2 1 ack 576 ------- 2 2.1 1.0 4825 24
- 3.604265 2 1 ack 576 ------- 2 2.1 1.0 5361 25
- 3.604357 2 1 ack 576 ------- 2 2.1 1.0 5897 26
- 3.604449 2 1 ack 576 ------- 2 2.1 1.0 6433 27
- 3.604542 2 1 ack 576 ------- 2 2.1 1.0 6969 28
r 3.604704 0 3 ack 40 ------- 2 1.1 3.1 1 16
r 3.605989 2 1 ack 576 ------- 2 2.1 1.0 3217 21
+ 3.605989 1 2 tcp 40 ------- 2 1.0 2.1 44 29
- 3.605989 1 2 tcp 40 ------- 2 1.0 2.1 44 29
r 3.606081 2 1 ack 576 ------- 2 2.1 1.0 3753 22
+ 3.606081 1 2 tcp 40 ------- 2 1.0 2.1 44 30
- 3.606081 1 2 tcp 40 ------- 2 1.0 2.1 44 30
r 3.606173 2 1 ack 576 ------- 2 2.1 1.0 4289 23
+ 3.606173 1 2 tcp 40 ------- 2 1.0 2.1 44 31
- 3.606173 1 2 tcp 40 ------- 2 1.0 2.1 44 31
r 3.606265 2 1 ack 576 ------- 2 2.1 1.0 4825 24
+ 3.606265 1 2 tcp 40 ------- 2 1.0 2.1 44 32
- 3.606265 1 2 tcp 40 ------- 2 1.0 2.1 44 32
r 3.606357 2 1 ack 576 ------- 2 2.1 1.0 5361 25
+ 3.606357 1 2 tcp 40 ------- 2 1.0 2.1 44 33
- 3.606357 1 2 tcp 40 ------- 2 1.0 2.1 44 33
r 3.606449 2 1 ack 576 ------- 2 2.1 1.0 5897 26
+ 3.606449 1 2 tcp 40 ------- 2 1.0 2.1 44 34
- 3.606449 1 2 tcp 40 ------- 2 1.0 2.1 44 34
r 3.606542 2 1 ack 576 ------- 2 2.1 1.0 6433 27
+ 3.606542 1 2 tcp 40 ------- 2 1.0 2.1 44 35
- 3.606542 1 2 tcp 40 ------- 2 1.0 2.1 44 35
r 3.606634 2 1 ack 576 ------- 2 2.1 1.0 6969 28
+ 3.606634 1 2 tcp 40 ------- 2 1.0 2.1 44 36
- 3.606634 1 2 tcp 40 ------- 2 1.0 2.1 44 36
r 3.607995 1 2 tcp 40 ------- 2 1.0 2.1 44 29
+ 3.607995 2 1 ack 576 ------- 2 2.1 1.0 7505 37
- 3.607995 2 1 ack 576 ------- 2 2.1 1.0 7505 37
+ 3.607995 2 1 ack 576 ------- 2 2.1 1.0 8041 38
r 3.608087 1 2 tcp 40 ------- 2 1.0 2.1 44 30
+ 3.608087 2 1 ack 576 ------- 2 2.1 1.0 8577 39
+ 3.608087 2 1 ack 576 ------- 2 2.1 1.0 9113 40
- 3.608087 2 1 ack 576 ------- 2 2.1 1.0 8041 38
r 3.608179 1 2 tcp 40 ------- 2 1.0 2.1 44 31
+ 3.608179 2 1 ack 576 ------- 2 2.1 1.0 9649 41
- 3.608179 2 1 ack 576 ------- 2 2.1 1.0 8577 39
r 3.608271 1 2 tcp 40 ------- 2 1.0 2.1 44 32
- 3.608271 2 1 ack 576 ------- 2 2.1 1.0 9113 40
r 3.608364 1 2 tcp 40 ------- 2 1.0 2.1 44 33
- 3.608364 2 1 ack 576 ------- 2 2.1 1.0 9649 41
r 3.608456 1 2 tcp 40 ------- 2 1.0 2.1 44 34
r 3.608548 1 2 tcp 40 ------- 2 1.0 2.1 44 35
r 3.60864 1 2 tcp 40 ------- 2 1.0 2.1 44 36
r 3.610087 2 1 ack 576 ------- 2 2.1 1.0 7505 37
+ 3.610087 1 2 tcp 40 ------- 2 1.0 2.1 44 42
- 3.610087 1 2 tcp 40 ------- 2 1.0 2.1 44 42
r 3.610179 2 1 ack 576 ------- 2 2.1 1.0 8041 38
+ 3.610179 1 2 tcp 40 ------- 2 1.0 2.1 44 43
- 3.610179 1 2 tcp 40 ------- 2 1.0 2.1 44 43
r 3.610271 2 1 ack 576 ------- 2 2.1 1.0 8577 39
+ 3.610271 1 2 tcp 40 ------- 2 1.0 2.1 44 44
- 3.610271 1 2 tcp 40 ------- 2 1.0 2.1 44 44
r 3.610364 2 1 ack 576 ------- 2 2.1 1.0 9113 40
+ 3.610364 1 2 tcp 40 ------- 2 1.0 2.1 44 45
- 3.610364 1 2 tcp 40 ------- 2 1.0 2.1 44 45
r 3.610456 2 1 ack 576 ------- 2 2.1 1.0 9649 41
+ 3.610456 1 2 tcp 40 ------- 2 1.0 2.1 44 46
- 3.610456 1 2 tcp 40 ------- 2 1.0 2.1 44 46
r 3.612094 1 2 tcp 40 ------- 2 1.0 2.1 44 42
r 3.612186 1 2 tcp 40 ------- 2 1.0 2.1 44 43
r 3.612278 1 2 tcp 40 ------- 2 1.0 2.1 44 44
r 3.61237 1 2 tcp 40 ------- 2 1.0 2.1 44 45
r 3.612462 1 2 tcp 40 ------- 2 1.0 2.1 44 46
+ 3.612462 2 1 ack 96 ------- 2 2.1 1.0 10185 47
- 3.612462 2 1 ack 96 ------- 2 2.1 1.0 10185 47
r 3.614478 2 1 ack 96 ------- 2 2.1 1.0 10185 47
+ 3.614478 1 0 ack 576 ------- 2 1.1 3.1 1 48
- 3.614478 1 0 ack 576 ------- 2 1.1 3.1 1 48
+ 3.614478 1 0 ack 576 ------- 2 1.1 3.1 537 49
- 3.615399 1 0 ack 576 ------- 2 1.1 3.1 537 49
r 3.617399 1 0 ack 576 ------- 2 1.1 3.1 1 48
+ 3.617399 0 3 ack 576 ------- 2 1.1 3.1 1 48
- 3.617399 0 3 ack 576 ------- 2 1.1 3.1 1 48
r 3.618321 1 0 ack 576 ------- 2 1.1 3.1 537 49
+ 3.618321 0 3 ack 576 ------- 2 1.1 3.1 537 49
- 3.626615 0 3 ack 576 ------- 2 1.1 3.1 537 49
r 3.628615 0 3 ack 576 ------- 2 1.1 3.1 1 48
+ 3.628615 3 0 tcp 40 ------- 2 3.1 1.1 44 50
- 3.628615 3 0 tcp 40 ------- 2 3.1 1.1 44 50
r 3.631255 3 0 tcp 40 ------- 2 3.1 1.1 44 50
+ 3.631255 0 1 tcp 40 ------- 2 3.1 1.1 44 50
- 3.631255 0 1 tcp 40 ------- 2 3.1 1.1 44 50
r 3.633319 0 1 tcp 40 ------- 2 3.1 1.1 44 50
+ 3.633319 1 0 ack 576 ------- 2 1.1 3.1 1073 51
- 3.633319 1 0 ack 576 ------- 2 1.1 3.1 1073 51
+ 3.633319 1 0 ack 576 ------- 2 1.1 3.1 1609 52
- 3.634241 1 0 ack 576 ------- 2 1.1 3.1 1609 52
r 3.636241 1 0 ack 576 ------- 2 1.1 3.1 1073 51
+ 3.636241 0 3 ack 576 ------- 2 1.1 3.1 1073 51
- 3.636241 0 3 ack 576 ------- 2 1.1 3.1 1073 51
r 3.637162 1 0 ack 576 ------- 2 1.1 3.1 1609 52
+ 3.637162 0 3 ack 576 ------- 2 1.1 3.1 1609 52
r 3.637831 0 3 ack 576 ------- 2 1.1 3.1 537 49
+ 3.637831 3 0 tcp 40 ------- 2 3.1 1.1 44 53
- 3.637831 3 0 tcp 40 ------- 2 3.1 1.1 44 53
r 3.640471 3 0 tcp 40 ------- 2 3.1 1.1 44 53
+ 3.640471 0 1 tcp 40 ------- 2 3.1 1.1 44 53
- 3.640471 0 1 tcp 40 ------- 2 3.1 1.1 44 53
r 3.642535 0 1 tcp 40 ------- 2 3.1 1.1 44 53
+ 3.642535 1 0 ack 576 ------- 2 1.1 3.1 2145 54
- 3.642535 1 0 ack 576 ------- 2 1.1 3.1 2145 54
+ 3.642535 1 0 ack 576 ------- 2 1.1 3.1 2681 55
- 3.643457 1 0 ack 576 ------- 2 1.1 3.1 2681 55
- 3.645457 0 3 ack 576 ------- 2 1.1 3.1 1609 52
r 3.645457 1 0 ack 576 ------- 2 1.1 3.1 2145 54
+ 3.645457 0 3 ack 576 ------- 2 1.1 3.1 2145 54
r 3.646378 1 0 ack 576 ------- 2 1.1 3.1 2681 55
+ 3.646378 0 3 ack 576 ------- 2 1.1 3.1 2681 55
r 3.647457 0 3 ack 576 ------- 2 1.1 3.1 1073 51
+ 3.647457 3 0 tcp 40 ------- 2 3.1 1.1 44 56
- 3.647457 3 0 tcp 40 ------- 2 3.1 1.1 44 56
r 3.650097 3 0 tcp 40 ------- 2 3.1 1.1 44 56
+ 3.650097 0 1 tcp 40 ------- 2 3.1 1.1 44 56
- 3.650097 0 1 tcp 40 ------- 2 3.1 1.1 44 56
r 3.652161 0 1 tcp 40 ------- 2 3.1 1.1 44 56
+ 3.652161 1 0 ack 576 ------- 2 1.1 3.1 3217 57
- 3.652161 1 0 ack 576 ------- 2 1.1 3.1 3217 57
+ 3.652161 1 0 ack 576 ------- 2 1.1 3.1 3753 58
- 3.653082 1 0 ack 576 ------- 2 1.1 3.1 3753 58
- 3.654673 0 3 ack 576 ------- 2 1.1 3.1 2145 54
r 3.655082 1 0 ack 576 ------- 2 1.1 3.1 3217 57
+ 3.655082 0 3 ack 576 ------- 2 1.1 3.1 3217 57
r 3.656004 1 0 ack 576 ------- 2 1.1 3.1 3753 58
+ 3.656004 0 3 ack 576 ------- 2 1.1 3.1 3753 58
r 3.656673 0 3 ack 576 ------- 2 1.1 3.1 1609 52
+ 3.656673 3 0 tcp 40 ------- 2 3.1 1.1 44 59
- 3.656673 3 0 tcp 40 ------- 2 3.1 1.1 44 59
r 3.659313 3 0 tcp 40 ------- 2 3.1 1.1 44 59
+ 3.659313 0 1 tcp 40 ------- 2 3.1 1.1 44 59
- 3.659313 0 1 tcp 40 ------- 2 3.1 1.1 44 59
r 3.661377 0 1 tcp 40 ------- 2 3.1 1.1 44 59
+ 3.661377 1 0 ack 576 ------- 2 1.1 3.1 4289 60
- 3.661377 1 0 ack 576 ------- 2 1.1 3.1 4289 60
+ 3.661377 1 0 ack 576 ------- 2 1.1 3.1 4825 61
- 3.662298 1 0 ack 576 ------- 2 1.1 3.1 4825 61
- 3.663889 0 3 ack 576 ------- 2 1.1 3.1 2681 55
r 3.664298 1 0 ack 576 ------- 2 1.1 3.1 4289 60
+ 3.664298 0 3 ack 576 ------- 2 1.1 3.1 4289 60
r 3.66522 1 0 ack 576 ------- 2 1.1 3.1 4825 61
+ 3.66522 0 3 ack 576 ------- 2 1.1 3.1 4825 61
r 3.665889 0 3 ack 576 ------- 2 1.1 3.1 2145 54
+ 3.665889 3 0 tcp 40 ------- 2 3.1 1.1 44 62
- 3.665889 3 0 tcp 40 ------- 2 3.1 1.1 44 62
r 3.668529 3 0 tcp 40 ------- 2 3.1 1.1 44 62
+ 3.668529 0 1 tcp 40 ------- 2 3.1 1.1 44 62
- 3.668529 0 1 tcp 40 ------- 2 3.1 1.1 44 62
r 3.670593 0 1 tcp 40 ------- 2 3.1 1.1 44 62
+ 3.670593 1 0 ack 576 ------- 2 1.1 3.1 5361 63
- 3.670593 1 0 ack 576 ------- 2 1.1 3.1 5361 63
+ 3.670593 1 0 ack 576 ------- 2 1.1 3.1 5897 64
- 3.671514 1 0 ack 576 ------- 2 1.1 3.1 5897 64
- 3.673105 0 3 ack 576 ------- 2 1.1 3.1 3217 57
r 3.673514 1 0 ack 576 ------- 2 1.1 3.1 5361 63
+ 3.673514 0 3 ack 576 ------- 2 1.1 3.1 5361 63
r 3.674436 1 0 ack 576 ------- 2 1.1 3.1 5897 64
+ 3.674436 0 3 ack 576 ------- 2 1.1 3.1 5897 64
r 3.675105 0 3 ack 576 ------- 2 1.1 3.1 2681 55
+ 3.675105 3 0 tcp 40 ------- 2 3.1 1.1 44 65
- 3.675105 3 0 tcp 40 ------- 2 3.1 1.1 44 65
r 3.677745 3 0 tcp 40 ------- 2 3.1 1.1 44 65
+ 3.677745 0 1 tcp 40 ------- 2 3.1 1.1 44 65
- 3.677745 0 1 tcp 40 ------- 2 3.1 1.1 44 65
r 3.679809 0 1 tcp 40 ------- 2 3.1 1.1 44 65
+ 3.679809 1 0 ack 576 ------- 2 1.1 3.1 6433 66
- 3.679809 1 0 ack 576 ------- 2 1.1 3.1 6433 66
+ 3.679809 1 0 ack 576 ------- 2 1.1 3.1 6969 67
- 3.68073 1 0 ack 576 ------- 2 1.1 3.1 6969 67
- 3.682321 0 3 ack 576 ------- 2 1.1 3.1 3753 58
r 3.68273 1 0 ack 576 ------- 2 1.1 3.1 6433 66
+ 3.68273 0 3 ack 576 ------- 2 1.1 3.1 6433 66
r 3.683652 1 0 ack 576 ------- 2 1.1 3.1 6969 67
+ 3.683652 0 3 ack 576 ------- 2 1.1 3.1 6969 67
r 3.684321 0 3 ack 576 ------- 2 1.1 3.1 3217 57
+ 3.684321 3 0 tcp 40 ------- 2 3.1 1.1 44 68
- 3.684321 3 0 tcp 40 ------- 2 3.1 1.1 44 68
r 3.686961 3 0 tcp 40 ------- 2 3.1 1.1 44 68
+ 3.686961 0 1 tcp 40 ------- 2 3.1 1.1 44 68
- 3.686961 0 1 tcp 40 ------- 2 3.1 1.1 44 68
r 3.689025 0 1 tcp 40 ------- 2 3.1 1.1 44 68
+ 3.689025 1 0 ack 576 ------- 2 1.1 3.1 7505 69
- 3.689025 1 0 ack 576 ------- 2 1.1 3.1 7505 69
+ 3.689025 1 0 ack 576 ------- 2 1.1 3.1 8041 70
- 3.689946 1 0 ack 576 ------- 2 1.1 3.1 8041 70
- 3.691537 0 3 ack 576 ------- 2 1.1 3.1 4289 60
r 3.691946 1 0 ack 576 ------- 2 1.1 3.1 7505 69
+ 3.691946 0 3 ack 576 ------- 2 1.1 3.1 7505 69
r 3.692868 1 0 ack 576 ------- 2 1.1 3.1 8041 70
+ 3.692868 0 3 ack 576 ------- 2 1.1 3.1 8041 70
r 3.693537 0 3 ack 576 ------- 2 1.1 3.1 3753 58
+ 3.693537 3 0 tcp 40 ------- 2 3.1 1.1 44 71
- 3.693537 3 0 tcp 40 ------- 2 3.1 1.1 44 71
r 3.696177 3 0 tcp 40 ------- 2 3.1 1.1 44 71
+ 3.696177 0 1 tcp 40 ------- 2 3.1 1.1 44 71
- 3.696177 0 1 tcp 40 ------- 2 3.1 1.1 44 71
r 3.698241 0 1 tcp 40 ------- 2 3.1 1.1 44 71
+ 3.698241 1 0 ack 576 ------- 2 1.1 3.1 8577 72
- 3.698241 1 0 ack 576 ------- 2 1.1 3.1 8577 72
+ 3.698241 1 0 ack 576 ------- 2 1.1 3.1 9113 73
- 3.699162 1 0 ack 576 ------- 2 1.1 3.1 9113 73
+ 3.7 1 2 tcp 40 ------- 2 1.0 2.1 44 74
- 3.7 1 2 tcp 40 ------- 2 1.0 2.1 44 74
- 3.700753 0 3 ack 576 ------- 2 1.1 3.1 4825 61
r 3.701162 1 0 ack 576 ------- 2 1.1 3.1 8577 72
+ 3.701162 0 3 ack 576 ------- 2 1.1 3.1 8577 72
r 3.702006 1 2 tcp 40 ------- 2 1.0 2.1 44 74
r 3.702084 1 0 ack 576 ------- 2 1.1 3.1 9113 73
+ 3.702084 0 3 ack 576 ------- 2 1.1 3.1 9113 73
r 3.702753 0 3 ack 576 ------- 2 1.1 3.1 4289 60
+ 3.702753 3 0 tcp 40 ------- 2 3.1 1.1 44 75
- 3.702753 3 0 tcp 40 ------- 2 3.1 1.1 44 75
r 3.705393 3 0 tcp 40 ------- 2 3.1 1.1 44 75
+ 3.705393 0 1 tcp 40 ------- 2 3.1 1.1 44 75
- 3.705393 0 1 tcp 40 ------- 2 3.1 1.1 44 75
r 3.707457 0 1 tcp 40 ------- 2 3.1 1.1 44 75
+ 3.707457 1 0 ack 576 ------- 2 1.1 3.1 9649 76
- 3.707457 1 0 ack 576 ------- 2 1.1 3.1 9649 76
- 3.709969 0 3 ack 576 ------- 2 1.1 3.1 5361 63
r 3.710378 1 0 ack 576 ------- 2 1.1 3.1 9649 76
+ 3.710378 0 3 ack 576 ------- 2 1.1 3.1 9649 76
r 3.711969 0 3 ack 576 ------- 2 1.1 3.1 4825 61
+ 3.711969 3 0 tcp 40 ------- 2 3.1 1.1 44 77
- 3.711969 3 0 tcp 40 ------- 2 3.1 1.1 44 77
r 3.714609 3 0 tcp 40 ------- 2 3.1 1.1 44 77
+ 3.714609 0 1 tcp 40 ------- 2 3.1 1.1 44 77
- 3.714609 0 1 tcp 40 ------- 2 3.1 1.1 44 77
r 3.716673 0 1 tcp 40 ------- 2 3.1 1.1 44 77
- 3.719185 0 3 ack 576 ------- 2 1.1 3.1 5897 64
r 3.721185 0 3 ack 576 ------- 2 1.1 3.1 5361 63
+ 3.721185 3 0 tcp 40 ------- 2 3.1 1.1 44 78
- 3.721185 3 0 tcp 40 ------- 2 3.1 1.1 44 78
r 3.723825 3 0 tcp 40 ------- 2 3.1 1.1 44 78
+ 3.723825 0 1 tcp 40 ------- 2 3.1 1.1 44 78
- 3.723825 0 1 tcp 40 ------- 2 3.1 1.1 44 78
r 3.725889 0 1 tcp 40 ------- 2 3.1 1.1 44 78
- 3.728401 0 3 ack 576 ------- 2 1.1 3.1 6433 66
r 3.730401 0 3 ack 576 ------- 2 1.1 3.1 5897 64
+ 3.730401 3 0 tcp 40 ------- 2 3.1 1.1 44 79
- 3.730401 3 0 tcp 40 ------- 2 3.1 1.1 44 79
r 3.733041 3 0 tcp 40 ------- 2 3.1 1.1 44 79
+ 3.733041 0 1 tcp 40 ------- 2 3.1 1.1 44 79
- 3.733041 0 1 tcp 40 ------- 2 3.1 1.1 44 79
r 3.735105 0 1 tcp 40 ------- 2 3.1 1.1 44 79
- 3.737617 0 3 ack 576 ------- 2 1.1 3.1 6969 67
r 3.739617 0 3 ack 576 ------- 2 1.1 3.1 6433 66
+ 3.739617 3 0 tcp 40 ------- 2 3.1 1.1 44 80
- 3.739617 3 0 tcp 40 ------- 2 3.1 1.1 44 80
r 3.742257 3 0 tcp 40 ------- 2 3.1 1.1 44 80
+ 3.742257 0 1 tcp 40 ------- 2 3.1 1.1 44 80
- 3.742257 0 1 tcp 40 ------- 2 3.1 1.1 44 80
r 3.744321 0 1 tcp 40 ------- 2 3.1 1.1 44 80
- 3.746833 0 3 ack 576 ------- 2 1.1 3.1 7505 69
r 3.748833 0 3 ack 576 ------- 2 1.1 3.1 6969 67
+ 3.748833 3 0 tcp 40 ------- 2 3.1 1.1 44 81
- 3.748833 3 0 tcp 40 ------- 2 3.1 1.1 44 81
r 3.751473 3 0 tcp 40 ------- 2 3.1 1.1 44 81
+ 3.751473 0 1 tcp 40 ------- 2 3.1 1.1 44 81
- 3.751473 0 1 tcp 40 ------- 2 3.1 1.1 44 81
r 3.753537 0 1 tcp 40 ------- 2 3.1 1.1 44 81
- 3.756049 0 3 ack 576 ------- 2 1.1 3.1 8041 70
r 3.758049 0 3 ack 576 ------- 2 1.1 3.1 7505 69
+ 3.758049 3 0 tcp 40 ------- 2 3.1 1.1 44 82
- 3.758049 3 0 tcp 40 ------- 2 3.1 1.1 44 82
r 3.760689 3 0 tcp 40 ------- 2 3.1 1.1 44 82
+ 3.760689 0 1 tcp 40 ------- 2 3.1 1.1 44 82
- 3.760689 0 1 tcp 40 ------- 2 3.1 1.1 44 82
r 3.762753 0 1 tcp 40 ------- 2 3.1 1.1 44 82
- 3.765265 0 3 ack 576 ------- 2 1.1 3.1 8577 72
r 3.767265 0 3 ack 576 ------- 2 1.1 3.1 8041 70
+ 3.767265 3 0 tcp 40 ------- 2 3.1 1.1 44 83
- 3.767265 3 0 tcp 40 ------- 2 3.1 1.1 44 83
r 3.769905 3 0 tcp 40 ------- 2 3.1 1.1 44 83
+ 3.769905 0 1 tcp 40 ------- 2 3.1 1.1 44 83
- 3.769905 0 1 tcp 40 ------- 2 3.1 1.1 44 83
r 3.771969 0 1 tcp 40 ------- 2 3.1 1.1 44 83
- 3.774481 0 3 ack 576 ------- 2 1.1 3.1 9113 73
r 3.776481 0 3 ack 576 ------- 2 1.1 3.1 8577 72
+ 3.776481 3 0 tcp 40 ------- 2 3.1 1.1 44 84
- 3.776481 3 0 tcp 40 ------- 2 3.1 1.1 44 84
r 3.779121 3 0 tcp 40 ------- 2 3.1 1.1 44 84
+ 3.779121 0 1 tcp 40 ------- 2 3.1 1.1 44 84
- 3.779121 0 1 tcp 40 ------- 2 3.1 1.1 44 84
r 3.781185 0 1 tcp 40 ------- 2 3.1 1.1 44 84
- 3.783697 0 3 ack 576 ------- 2 1.1 3.1 9649 76
r 3.785697 0 3 ack 576 ------- 2 1.1 3.1 9113 73
+ 3.785697 3 0 tcp 40 ------- 2 3.1 1.1 44 85
- 3.785697 3 0 tcp 40 ------- 2 3.1 1.1 44 85
r 3.788337 3 0 tcp 40 ------- 2 3.1 1.1 44 85
+ 3.788337 0 1 tcp 40 ------- 2 3.1 1.1 44 85
- 3.788337 0 1 tcp 40 ------- 2 3.1 1.1 44 85
r 3.790401 0 1 tcp 40 ------- 2 3.1 1.1 44 85
r 3.794913 0 3 ack 576 ------- 2 1.1 3.1 9649 76
+ 3.794913 3 0 tcp 40 ------- 2 3.1 1.1 44 86
- 3.794913 3 0 tcp 40 ------- 2 3.1 1.1 44 86
r 3.797553 3 0 tcp 40 ------- 2 3.1 1.1 44 86
+ 3.797553 0 1 tcp 40 ------- 2 3.1 1.1 44 86
- 3.797553 0 1 tcp 40 ------- 2 3.1 1.1 44 86
r 3.799617 0 1 tcp 40 ------- 2 3.1 1.1 44 86
+ 3.799617 1 0 ack 96 ------- 2 1.1 3.1 10185 87
- 3.799617 1 0 ack 96 ------- 2 1.1 3.1 10185 87
r 3.80177 1 0 ack 96 ------- 2 1.1 3.1 10185 87
+ 3.80177 0 3 ack 96 ------- 2 1.1 3.1 10185 87
- 3.80177 0 3 ack 96 ------- 2 1.1 3.1 10185 87
r 3.805306 0 3 ack 96 ------- 2 1.1 3.1 10185 87
+ 3.9 3 0 tcp 40 ------- 2 3.1 1.1 44 88
- 3.9 3 0 tcp 40 ------- 2 3.1 1.1 44 88
r 3.90264 3 0 tcp 40 ------- 2 3.1 1.1 44 88
+ 3.90264 0 1 tcp 40 ------- 2 3.1 1.1 44 88
- 3.90264 0 1 tcp 40 ------- 2 3.1 1.1 44 88
r 3.904704 0 1 tcp 40 ------- 2 3.1 1.1 44 88
v 4.0418806708460551 eval {set sim_annotation {S 2 INV _o108:0}}
+ 5.381161 3 0 tcp 83 ---A--- 2 3.1 1.1 44 89
- 5.381161 3 0 tcp 83 ---A--- 2 3.1 1.1 44 89
r 5.384489 3 0 tcp 83 ---A--- 2 3.1 1.1 44 89
+ 5.384489 0 1 tcp 83 ---A--- 2 3.1 1.1 44 89
- 5.384489 0 1 tcp 83 ---A--- 2 3.1 1.1 44 89
r 5.386622 0 1 tcp 83 ---A--- 2 3.1 1.1 44 89
+ 5.386622 1 0 ack 576 ---A--- 2 1.1 3.1 10241 90
- 5.386622 1 0 ack 576 ---A--- 2 1.1 3.1 10241 90
+ 5.386622 1 0 ack 576 ------- 2 1.1 3.1 10777 91
- 5.387543 1 0 ack 576 ------- 2 1.1 3.1 10777 91
r 5.389543 1 0 ack 576 ---A--- 2 1.1 3.1 10241 90
+ 5.389543 0 3 ack 576 ---A--- 2 1.1 3.1 10241 90
- 5.389543 0 3 ack 576 ---A--- 2 1.1 3.1 10241 90
r 5.390465 1 0 ack 576 ------- 2 1.1 3.1 10777 91
+ 5.390465 0 3 ack 576 ------- 2 1.1 3.1 10777 91
- 5.398759 0 3 ack 576 ------- 2 1.1 3.1 10777 91
r 5.400759 0 3 ack 576 ---A--- 2 1.1 3.1 10241 90
+ 5.400759 3 0 tcp 40 ------- 2 3.1 1.1 87 92
- 5.400759 3 0 tcp 40 ------- 2 3.1 1.1 87 92
r 5.403399 3 0 tcp 40 ------- 2 3.1 1.1 87 92
+ 5.403399 0 1 tcp 40 ------- 2 3.1 1.1 87 92
- 5.403399 0 1 tcp 40 ------- 2 3.1 1.1 87 92
r 5.405463 0 1 tcp 40 ------- 2 3.1 1.1 87 92
+ 5.405463 1 0 ack 576 ------- 2 1.1 3.1 11313 93
- 5.405463 1 0 ack 576 ------- 2 1.1 3.1 11313 93
+ 5.405463 1 0 ack 576 ------- 2 1.1 3.1 11849 94
- 5.406385 1 0 ack 576 ------- 2 1.1 3.1 11849 94
r 5.408385 1 0 ack 576 ------- 2 1.1 3.1 11313 93
+ 5.408385 0 3 ack 576 ------- 2 1.1 3.1 11313 93
- 5.408385 0 3 ack 576 ------- 2 1.1 3.1 11313 93
r 5.409307 1 0 ack 576 ------- 2 1.1 3.1 11849 94
+ 5.409307 0 3 ack 576 ------- 2 1.1 3.1 11849 94
r 5.409975 0 3 ack 576 ------- 2 1.1 3.1 10777 91
+ 5.409975 3 0 tcp 40 ------- 2 3.1 1.1 87 95
- 5.409975 3 0 tcp 40 ------- 2 3.1 1.1 87 95
r 5.412615 3 0 tcp 40 ------- 2 3.1 1.1 87 95
+ 5.412615 0 1 tcp 40 ------- 2 3.1 1.1 87 95
- 5.412615 0 1 tcp 40 ------- 2 3.1 1.1 87 95
r 5.414679 0 1 tcp 40 ------- 2 3.1 1.1 87 95
+ 5.414679 1 0 ack 576 ------- 2 1.1 3.1 12385 96
- 5.414679 1 0 ack 576 ------- 2 1.1 3.1 12385 96
+ 5.414679 1 0 ack 576 ------- 2 1.1 3.1 12921 97
- 5.415601 1 0 ack 576 ------- 2 1.1 3.1 12921 97
- 5.417601 0 3 ack 576 ------- 2 1.1 3.1 11849 94
r 5.417601 1 0 ack 576 ------- 2 1.1 3.1 12385 96
+ 5.417601 0 3 ack 576 ------- 2 1.1 3.1 12385 96
r 5.418523 1 0 ack 576 ------- 2 1.1 3.1 12921 97
+ 5.418523 0 3 ack 576 ------- 2 1.1 3.1 12921 97
r 5.419601 0 3 ack 576 ------- 2 1.1 3.1 11313 93
+ 5.419601 3 0 tcp 40 ------- 2 3.1 1.1 87 98
- 5.419601 3 0 tcp 40 ------- 2 3.1 1.1 87 98
r 5.422241 3 0 tcp 40 ------- 2 3.1 1.1 87 98
+ 5.422241 0 1 tcp 40 ------- 2 3.1 1.1 87 98
- 5.422241 0 1 tcp 40 ------- 2 3.1 1.1 87 98
r 5.424305 0 1 tcp 40 ------- 2 3.1 1.1 87 98
+ 5.424305 1 0 ack 576 ------- 2 1.1 3.1 13457 99
- 5.424305 1 0 ack 576 ------- 2 1.1 3.1 13457 99
+ 5.424305 1 0 ack 576 ------- 2 1.1 3.1 13993 100
- 5.425227 1 0 ack 576 ------- 2 1.1 3.1 13993 100
- 5.426817 0 3 ack 576 ------- 2 1.1 3.1 12385 96
r 5.427227 1 0 ack 576 ------- 2 1.1 3.1 13457 99
+ 5.427227 0 3 ack 576 ------- 2 1.1 3.1 13457 99
r 5.428148 1 0 ack 576 ------- 2 1.1 3.1 13993 100
+ 5.428148 0 3 ack 576 ------- 2 1.1 3.1 13993 100
r 5.428817 0 3 ack 576 ------- 2 1.1 3.1 11849 94
+ 5.428817 3 0 tcp 40 ------- 2 3.1 1.1 87 101
- 5.428817 3 0 tcp 40 ------- 2 3.1 1.1 87 101
r 5.431457 3 0 tcp 40 ------- 2 3.1 1.1 87 101
+ 5.431457 0 1 tcp 40 ------- 2 3.1 1.1 87 101
- 5.431457 0 1 tcp 40 ------- 2 3.1 1.1 87 101
r 5.433521 0 1 tcp 40 ------- 2 3.1 1.1 87 101
+ 5.433521 1 0 ack 576 ------- 2 1.1 3.1 14529 102
- 5.433521 1 0 ack 576 ------- 2 1.1 3.1 14529 102
+ 5.433521 1 0 ack 576 ------- 2 1.1 3.1 15065 103
- 5.434443 1 0 ack 576 ------- 2 1.1 3.1 15065 103
- 5.436033 0 3 ack 576 ------- 2 1.1 3.1 12921 97
r 5.436443 1 0 ack 576 ------- 2 1.1 3.1 14529 102
+ 5.436443 0 3 ack 576 ------- 2 1.1 3.1 14529 102
r 5.437364 1 0 ack 576 ------- 2 1.1 3.1 15065 103
+ 5.437364 0 3 ack 576 ------- 2 1.1 3.1 15065 103
r 5.438033 0 3 ack 576 ------- 2 1.1 3.1 12385 96
+ 5.438033 3 0 tcp 40 ------- 2 3.1 1.1 87 104
- 5.438033 3 0 tcp 40 ------- 2 3.1 1.1 87 104
r 5.440673 3 0 tcp 40 ------- 2 3.1 1.1 87 104
+ 5.440673 0 1 tcp 40 ------- 2 3.1 1.1 87 104
- 5.440673 0 1 tcp 40 ------- 2 3.1 1.1 87 104
r 5.442737 0 1 tcp 40 ------- 2 3.1 1.1 87 104
+ 5.442737 1 0 ack 576 ------- 2 1.1 3.1 15601 105
- 5.442737 1 0 ack 576 ------- 2 1.1 3.1 15601 105
+ 5.442737 1 0 ack 576 ------- 2 1.1 3.1 16137 106
- 5.443659 1 0 ack 576 ------- 2 1.1 3.1 16137 106
- 5.445249 0 3 ack 576 ------- 2 1.1 3.1 13457 99
r 5.445659 1 0 ack 576 ------- 2 1.1 3.1 15601 105
+ 5.445659 0 3 ack 576 ------- 2 1.1 3.1 15601 105
r 5.44658 1 0 ack 576 ------- 2 1.1 3.1 16137 106
+ 5.44658 0 3 ack 576 ------- 2 1.1 3.1 16137 106
r 5.447249 0 3 ack 576 ------- 2 1.1 3.1 12921 97
+ 5.447249 3 0 tcp 40 ------- 2 3.1 1.1 87 107
- 5.447249 3 0 tcp 40 ------- 2 3.1 1.1 87 107
r 5.449889 3 0 tcp 40 ------- 2 3.1 1.1 87 107
+ 5.449889 0 1 tcp 40 ------- 2 3.1 1.1 87 107
- 5.449889 0 1 tcp 40 ------- 2 3.1 1.1 87 107
r 5.451953 0 1 tcp 40 ------- 2 3.1 1.1 87 107
+ 5.451953 1 0 ack 576 ------- 2 1.1 3.1 16673 108
- 5.451953 1 0 ack 576 ------- 2 1.1 3.1 16673 108
+ 5.451953 1 0 ack 576 ------- 2 1.1 3.1 17209 109
- 5.452875 1 0 ack 576 ------- 2 1.1 3.1 17209 109
- 5.454465 0 3 ack 576 ------- 2 1.1 3.1 13993 100
r 5.454875 1 0 ack 576 ------- 2 1.1 3.1 16673 108
+ 5.454875 0 3 ack 576 ------- 2 1.1 3.1 16673 108
r 5.455796 1 0 ack 576 ------- 2 1.1 3.1 17209 109
+ 5.455796 0 3 ack 576 ------- 2 1.1 3.1 17209 109
r 5.456465 0 3 ack 576 ------- 2 1.1 3.1 13457 99
+ 5.456465 3 0 tcp 40 ------- 2 3.1 1.1 87 110
- 5.456465 3 0 tcp 40 ------- 2 3.1 1.1 87 110
r 5.459105 3 0 tcp 40 ------- 2 3.1 1.1 87 110
+ 5.459105 0 1 tcp 40 ------- 2 3.1 1.1 87 110
- 5.459105 0 1 tcp 40 ------- 2 3.1 1.1 87 110
r 5.461169 0 1 tcp 40 ------- 2 3.1 1.1 87 110
+ 5.461169 1 0 ack 576 ------- 2 1.1 3.1 17745 111
- 5.461169 1 0 ack 576 ------- 2 1.1 3.1 17745 111
+ 5.461169 1 0 ack 576 ------- 2 1.1 3.1 18281 112
- 5.462091 1 0 ack 576 ------- 2 1.1 3.1 18281 112
- 5.463681 0 3 ack 576 ------- 2 1.1 3.1 14529 102
r 5.464091 1 0 ack 576 ------- 2 1.1 3.1 17745 111
+ 5.464091 0 3 ack 576 ------- 2 1.1 3.1 17745 111
r 5.465012 1 0 ack 576 ------- 2 1.1 3.1 18281 112
+ 5.465012 0 3 ack 576 ------- 2 1.1 3.1 18281 112
r 5.465681 0 3 ack 576 ------- 2 1.1 3.1 13993 100
+ 5.465681 3 0 tcp 40 ------- 2 3.1 1.1 87 113
- 5.465681 3 0 tcp 40 ------- 2 3.1 1.1 87 113
r 5.468321 3 0 tcp 40 ------- 2 3.1 1.1 87 113
+ 5.468321 0 1 tcp 40 ------- 2 3.1 1.1 87 113
- 5.468321 0 1 tcp 40 ------- 2 3.1 1.1 87 113
r 5.470385 0 1 tcp 40 ------- 2 3.1 1.1 87 113
+ 5.470385 1 0 ack 576 ------- 2 1.1 3.1 18817 114
- 5.470385 1 0 ack 576 ------- 2 1.1 3.1 18817 114
+ 5.470385 1 0 ack 576 ------- 2 1.1 3.1 19353 115
- 5.471307 1 0 ack 576 ------- 2 1.1 3.1 19353 115
- 5.472897 0 3 ack 576 ------- 2 1.1 3.1 15065 103
r 5.473307 1 0 ack 576 ------- 2 1.1 3.1 18817 114
+ 5.473307 0 3 ack 576 ------- 2 1.1 3.1 18817 114
r 5.474228 1 0 ack 576 ------- 2 1.1 3.1 19353 115
+ 5.474228 0 3 ack 576 ------- 2 1.1 3.1 19353 115
r 5.474897 0 3 ack 576 ------- 2 1.1 3.1 14529 102
+ 5.474897 3 0 tcp 40 ------- 2 3.1 1.1 87 116
- 5.474897 3 0 tcp 40 ------- 2 3.1 1.1 87 116
r 5.477537 3 0 tcp 40 ------- 2 3.1 1.1 87 116
+ 5.477537 0 1 tcp 40 ------- 2 3.1 1.1 87 116
- 5.477537 0 1 tcp 40 ------- 2 3.1 1.1 87 116
r 5.479601 0 1 tcp 40 ------- 2 3.1 1.1 87 116
+ 5.479601 1 0 ack 576 ------- 2 1.1 3.1 19889 117
- 5.479601 1 0 ack 576 ------- 2 1.1 3.1 19889 117
- 5.482113 0 3 ack 576 ------- 2 1.1 3.1 15601 105
r 5.482523 1 0 ack 576 ------- 2 1.1 3.1 19889 117
+ 5.482523 0 3 ack 576 ------- 2 1.1 3.1 19889 117
r 5.484113 0 3 ack 576 ------- 2 1.1 3.1 15065 103
+ 5.484113 3 0 tcp 40 ------- 2 3.1 1.1 87 118
- 5.484113 3 0 tcp 40 ------- 2 3.1 1.1 87 118
r 5.486753 3 0 tcp 40 ------- 2 3.1 1.1 87 118
+ 5.486753 0 1 tcp 40 ------- 2 3.1 1.1 87 118
- 5.486753 0 1 tcp 40 ------- 2 3.1 1.1 87 118
r 5.488817 0 1 tcp 40 ------- 2 3.1 1.1 87 118
- 5.491329 0 3 ack 576 ------- 2 1.1 3.1 16137 106
r 5.493329 0 3 ack 576 ------- 2 1.1 3.1 15601 105
+ 5.493329 3 0 tcp 40 ------- 2 3.1 1.1 87 119
- 5.493329 3 0 tcp 40 ------- 2 3.1 1.1 87 119
r 5.495969 3 0 tcp 40 ------- 2 3.1 1.1 87 119
+ 5.495969 0 1 tcp 40 ------- 2 3.1 1.1 87 119
- 5.495969 0 1 tcp 40 ------- 2 3.1 1.1 87 119
r 5.498033 0 1 tcp 40 ------- 2 3.1 1.1 87 119
- 5.500545 0 3 ack 576 ------- 2 1.1 3.1 16673 108
r 5.502545 0 3 ack 576 ------- 2 1.1 3.1 16137 106
+ 5.502545 3 0 tcp 40 ------- 2 3.1 1.1 87 120
- 5.502545 3 0 tcp 40 ------- 2 3.1 1.1 87 120
r 5.505185 3 0 tcp 40 ------- 2 3.1 1.1 87 120
+ 5.505185 0 1 tcp 40 ------- 2 3.1 1.1 87 120
- 5.505185 0 1 tcp 40 ------- 2 3.1 1.1 87 120
r 5.507249 0 1 tcp 40 ------- 2 3.1 1.1 87 120
- 5.509761 0 3 ack 576 ------- 2 1.1 3.1 17209 109
r 5.511761 0 3 ack 576 ------- 2 1.1 3.1 16673 108
+ 5.511761 3 0 tcp 40 ------- 2 3.1 1.1 87 121
- 5.511761 3 0 tcp 40 ------- 2 3.1 1.1 87 121
r 5.514401 3 0 tcp 40 ------- 2 3.1 1.1 87 121
+ 5.514401 0 1 tcp 40 ------- 2 3.1 1.1 87 121
- 5.514401 0 1 tcp 40 ------- 2 3.1 1.1 87 121
r 5.516465 0 1 tcp 40 ------- 2 3.1 1.1 87 121
- 5.518977 0 3 ack 576 ------- 2 1.1 3.1 17745 111
r 5.520977 0 3 ack 576 ------- 2 1.1 3.1 17209 109
+ 5.520977 3 0 tcp 40 ------- 2 3.1 1.1 87 122
- 5.520977 3 0 tcp 40 ------- 2 3.1 1.1 87 122
r 5.523617 3 0 tcp 40 ------- 2 3.1 1.1 87 122
+ 5.523617 0 1 tcp 40 ------- 2 3.1 1.1 87 122
- 5.523617 0 1 tcp 40 ------- 2 3.1 1.1 87 122
r 5.525681 0 1 tcp 40 ------- 2 3.1 1.1 87 122
- 5.528193 0 3 ack 576 ------- 2 1.1 3.1 18281 112
r 5.530193 0 3 ack 576 ------- 2 1.1 3.1 17745 111
+ 5.530193 3 0 tcp 40 ------- 2 3.1 1.1 87 123
- 5.530193 3 0 tcp 40 ------- 2 3.1 1.1 87 123
r 5.532833 3 0 tcp 40 ------- 2 3.1 1.1 87 123
+ 5.532833 0 1 tcp 40 ------- 2 3.1 1.1 87 123
- 5.532833 0 1 tcp 40 ------- 2 3.1 1.1 87 123
r 5.534897 0 1 tcp 40 ------- 2 3.1 1.1 87 123
- 5.537409 0 3 ack 576 ------- 2 1.1 3.1 18817 114
r 5.539409 0 3 ack 576 ------- 2 1.1 3.1 18281 112
+ 5.539409 3 0 tcp 40 ------- 2 3.1 1.1 87 124
- 5.539409 3 0 tcp 40 ------- 2 3.1 1.1 87 124
r 5.542049 3 0 tcp 40 ------- 2 3.1 1.1 87 124
+ 5.542049 0 1 tcp 40 ------- 2 3.1 1.1 87 124
- 5.542049 0 1 tcp 40 ------- 2 3.1 1.1 87 124
r 5.544113 0 1 tcp 40 ------- 2 3.1 1.1 87 124
- 5.546625 0 3 ack 576 ------- 2 1.1 3.1 19353 115
r 5.548625 0 3 ack 576 ------- 2 1.1 3.1 18817 114
+ 5.548625 3 0 tcp 40 ------- 2 3.1 1.1 87 125
- 5.548625 3 0 tcp 40 ------- 2 3.1 1.1 87 125
r 5.551265 3 0 tcp 40 ------- 2 3.1 1.1 87 125
+ 5.551265 0 1 tcp 40 ------- 2 3.1 1.1 87 125
- 5.551265 0 1 tcp 40 ------- 2 3.1 1.1 87 125
r 5.553329 0 1 tcp 40 ------- 2 3.1 1.1 87 125
- 5.555841 0 3 ack 576 ------- 2 1.1 3.1 19889 117
r 5.557841 0 3 ack 576 ------- 2 1.1 3.1 19353 115
+ 5.557841 3 0 tcp 40 ------- 2 3.1 1.1 87 126
- 5.557841 3 0 tcp 40 ------- 2 3.1 1.1 87 126
r 5.560481 3 0 tcp 40 ------- 2 3.1 1.1 87 126
+ 5.560481 0 1 tcp 40 ------- 2 3.1 1.1 87 126
- 5.560481 0 1 tcp 40 ------- 2 3.1 1.1 87 126
r 5.562545 0 1 tcp 40 ------- 2 3.1 1.1 87 126