V -t * -v 1.0a5 -a 0
A -t * -n 1 -p 0 -o 0x7fffffff -c 30 -a 1
A -t * -h 1 -m 1073741823 -s 0
n -t * -a 0 -s 0 -S UP -v circle -c black -i black
n -t * -a 1 -s 1 -S UP -v circle -c yellow -i yellow
n -t * -a 2 -s 2 -S UP -v circle -c HotPink -i HotPink
n -t * -a 3 -s 3 -S UP -v circle -c SteelBlue -i SteelBlue
l -t * -s 3 -d 0 -S UP -r 500000 -D 0.002 -c black
l -t * -s 0 -d 1 -S UP -r 5000000 -D 0.002 -c black
l -t * -s 1 -d 2 -S UP -r 50000000 -D 0.002 -c black
+ -t 3.574158 -s 3 -d 0 -p tcp -e 40 -c 2 -i 0 -a 2 -x {3.1 1.1 0 ------- null}
- -t 3.574158 -s 3 -d 0 -p tcp -e 40 -c 2 -i 0 -a 2 -x {3.1 1.1 0 ------- null}
h -t 3.574158 -s 3 -d 0 -p tcp -e 40 -c 2 -i 0 -a 2 -x {3.1 1.1 -1 ------- null}
m -t 3.5741579999999997 -s 3 -n _o108:0:3.5741579999999997 -c purple -h circle
r -t 3.576798 -s 3 -d 0 -p tcp -e 40 -c 2 -i 0 -a 2 -x {3.1 1.1 0 ------- null}
+ -t 3.576798 -s 0 -d 1 -p tcp -e 40 -c 2 -i 0 -a 2 -x {3.1 1.1 0 ------- null}
- -t 3.576798 -s 0 -d 1 -p tcp -e 40 -c 2 -i 0 -a 2 -x {3.1 1.1 0 ------- null}
h -t 3.576798 -s 0 -d 1 -p tcp -e 40 -c 2 -i 0 -a 2 -x {3.1 1.1 -1 ------- null}
r -t 3.578862 -s 0 -d 1 -p tcp -e 40 -c 2 -i 0 -a 2 -x {3.1 1.1 0 ------- null}
+ -t 3.578862 -s 1 -d 0 -p ack -e 40 -c 2 -i 1 -a 2 -x {1.1 3.1 0 ------- null}
- -t 3.578862 -s 1 -d 0 -p ack -e 40 -c 2 -i 1 -a 2 -x {1.1 3.1 0 ------- null}
h -t 3.578862 -s 1 -d 0 -p ack -e 40 -c 2 -i 1 -a 2 -x {1.1 3.1 -1 ------- null}
r -t 3.580926 -s 1 -d 0 -p ack -e 40 -c 2 -i 1 -a 2 -x {1.1 3.1 0 ------- null}
+ -t 3.580926 -s 0 -d 3 -p ack -e 40 -c 2 -i 1 -a 2 -x {1.1 3.1 0 ------- null}
- -t 3.580926 -s 0 -d 3 -p ack -e 40 -c 2 -i 1 -a 2 -x {1.1 3.1 0 ------- null}
h -t 3.580926 -s 0 -d 3 -p ack -e 40 -c 2 -i 1 -a 2 -x {1.1 3.1 -1 ------- null}
r -t 3.583566 -s 0 -d 3 -p ack -e 40 -c 2 -i 1 -a 2 -x {1.1 3.1 0 ------- null}
+ -t 3.583566 -s 3 -d 0 -p tcp -e 40 -c 2 -i 2 -a 2 -x {3.1 1.1 1 ------- null}
- -t 3.583566 -s 3 -d 0 -p tcp -e 40 -c 2 -i 2 -a 2 -x {3.1 1.1 1 ------- null}
h -t 3.583566 -s 3 -d 0 -p tcp -e 40 -c 2 -i 2 -a 2 -x {3.1 1.1 -1 ------- null}
+ -t 3.583566 -s 3 -d 0 -p tcp -e 83 -c 2 -i 3 -a 2 -x {3.1 1.1 1 ------- null}
- -t 3.584206 -s 3 -d 0 -p tcp -e 83 -c 2 -i 3 -a 2 -x {3.1 1.1 1 ------- null}
h -t 3.584206 -s 3 -d 0 -p tcp -e 83 -c 2 -i 3 -a 2 -x {3.1 1.1 -1 ------- null}
r -t 3.586206 -s 3 -d 0 -p tcp -e 40 -c 2 -i 2 -a 2 -x {3.1 1.1 1 ------- null}
+ -t 3.586206 -s 0 -d 1 -p tcp -e 40 -c 2 -i 2 -a 2 -x {3.1 1.1 1 ------- null}
- -t 3.586206 -s 0 -d 1 -p tcp -e 40 -c 2 -i 2 -a 2 -x {3.1 1.1 1 ------- null}
h -t 3.586206 -s 0 -d 1 -p tcp -e 40 -c 2 -i 2 -a 2 -x {3.1 1.1 -1 ------- null}
r -t 3.587534 -s 3 -d 0 -p tcp -e 83 -c 2 -i 3 -a 2 -x {3.1 1.1 1 ------- null}
+ -t 3.587534 -s 0 -d 1 -p tcp -e 83 -c 2 -i 3 -a 2 -x {3.1 1.1 1 ------- null}
- -t 3.587534 -s 0 -d 1 -p tcp -e 83 -c 2 -i 3 -a 2 -x {3.1 1.1 1 ------- null}
h -t 3.587534 -s 0 -d 1 -p tcp -e 83 -c 2 -i 3 -a 2 -x {3.1 1.1 -1 ------- null}
r -t 3.58827 -s 0 -d 1 -p tcp -e 40 -c 2 -i 2 -a 2 -x {3.1 1.1 1 ------- null}
r -t 3.5896668 -s 0 -d 1 -p tcp -e 83 -c 2 -i 3 -a 2 -x {3.1 1.1 1 ------- null}
+ -t 3.5896668 -s 1 -d 2 -p tcp -e 40 -c 2 -i 4 -a 2 -x {1.0 2.1 0 ------- null}
- -t 3.5896668 -s 1 -d 2 -p tcp -e 40 -c 2 -i 4 -a 2 -x {1.0 2.1 0 ------- null}
h -t 3.5896668 -s 1 -d 2 -p tcp -e 40 -c 2 -i 4 -a 2 -x {1.0 2.1 -1 ------- null}
r -t 3.5916732 -s 1 -d 2 -p tcp -e 40 -c 2 -i 4 -a 2 -x {1.0 2.1 0 ------- null}
+ -t 3.5916732 -s 2 -d 1 -p ack -e 40 -c 2 -i 5 -a 2 -x {2.1 1.0 0 ------- null}
- -t 3.5916732 -s 2 -d 1 -p ack -e 40 -c 2 -i 5 -a 2 -x {2.1 1.0 0 ------- null}
h -t 3.5916732 -s 2 -d 1 -p ack -e 40 -c 2 -i 5 -a 2 -x {2.1 1.0 -1 ------- null}
r -t 3.5936796 -s 2 -d 1 -p ack -e 40 -c 2 -i 5 -a 2 -x {2.1 1.0 0 ------- null}
+ -t 3.5936796 -s 1 -d 2 -p tcp -e 40 -c 2 -i 6 -a 2 -x {1.0 2.1 1 ------- null}
- -t 3.5936796 -s 1 -d 2 -p tcp -e 40 -c 2 -i 6 -a 2 -x {1.0 2.1 1 ------- null}
h -t 3.5936796 -s 1 -d 2 -p tcp -e 40 -c 2 -i 6 -a 2 -x {1.0 2.1 -1 ------- null}
+ -t 3.5936796 -s 1 -d 2 -p tcp -e 83 -c 2 -i 7 -a 2 -x {1.0 2.1 1 ------- null}
- -t 3.593686 -s 1 -d 2 -p tcp -e 83 -c 2 -i 7 -a 2 -x {1.0 2.1 1 ------- null}
h -t 3.593686 -s 1 -d 2 -p tcp -e 83 -c 2 -i 7 -a 2 -x {1.0 2.1 -1 ------- null}
r -t 3.595686 -s 1 -d 2 -p tcp -e 40 -c 2 -i 6 -a 2 -x {1.0 2.1 1 ------- null}
r -t 3.59569928 -s 1 -d 2 -p tcp -e 83 -c 2 -i 7 -a 2 -x {1.0 2.1 1 ------- null}
+ -t 3.59569928 -s 2 -d 1 -p ack -e 576 -c 2 -i 8 -a 2 -x {2.1 1.0 1 ------- null}
- -t 3.59569928 -s 2 -d 1 -p ack -e 576 -c 2 -i 8 -a 2 -x {2.1 1.0 1 ------- null}
h -t 3.59569928 -s 2 -d 1 -p ack -e 576 -c 2 -i 8 -a 2 -x {2.1 1.0 -1 ------- null}
+ -t 3.59569928 -s 2 -d 1 -p ack -e 576 -c 2 -i 9 -a 2 -x {2.1 1.0 537 ------- null}
- -t 3.59579144 -s 2 -d 1 -p ack -e 576 -c 2 -i 9 -a 2 -x {2.1 1.0 537 ------- null}
h -t 3.59579144 -s 2 -d 1 -p ack -e 576 -c 2 -i 9 -a 2 -x {2.1 1.0 -1 ------- null}
r -t 3.59779144 -s 2 -d 1 -p ack -e 576 -c 2 -i 8 -a 2 -x {2.1 1.0 1 ------- null}
+ -t 3.59779144 -s 1 -d 2 -p tcp -e 40 -c 2 -i 10 -a 2 -x {1.0 2.1 44 ------- null}
- -t 3.59779144 -s 1 -d 2 -p tcp -e 40 -c 2 -i 10 -a 2 -x {1.0 2.1 44 ------- null}
h -t 3.59779144 -s 1 -d 2 -p tcp -e 40 -c 2 -i 10 -a 2 -x {1.0 2.1 -1 ------- null}
r -t 3.5978836 -s 2 -d 1 -p ack -e 576 -c 2 -i 9 -a 2 -x {2.1 1.0 537 ------- null}
+ -t 3.5978836 -s 1 -d 2 -p tcp -e 40 -c 2 -i 11 -a 2 -x {1.0 2.1 44 ------- null}
- -t 3.5978836 -s 1 -d 2 -p tcp -e 40 -c 2 -i 11 -a 2 -x {1.0 2.1 44 ------- null}
h -t 3.5978836 -s 1 -d 2 -p tcp -e 40 -c 2 -i 11 -a 2 -x {1.0 2.1 -1 ------- null}
r -t 3.59979784 -s 1 -d 2 -p tcp -e 40 -c 2 -i 10 -a 2 -x {1.0 2.1 44 ------- null}
+ -t 3.59979784 -s 2 -d 1 -p ack -e 576 -c 2 -i 12 -a 2 -x {2.1 1.0 1073 ------- null}
- -t 3.59979784 -s 2 -d 1 -p ack -e 576 -c 2 -i 12 -a 2 -x {2.1 1.0 1073 ------- null}
h -t 3.59979784 -s 2 -d 1 -p ack -e 576 -c 2 -i 12 -a 2 -x {2.1 1.0 -1 ------- null}
+ -t 3.59979784 -s 2 -d 1 -p ack -e 576 -c 2 -i 13 -a 2 -x {2.1 1.0 1609 ------- null}
r -t 3.59989 -s 1 -d 2 -p tcp -e 40 -c 2 -i 11 -a 2 -x {1.0 2.1 44 ------- null}
+ -t 3.59989 -s 2 -d 1 -p ack -e 576 -c 2 -i 14 -a 2 -x {2.1 1.0 2145 ------- null}
+ -t 3.59989 -s 2 -d 1 -p ack -e 576 -c 2 -i 15 -a 2 -x {2.1 1.0 2681 ------- null}
- -t 3.59989 -s 2 -d 1 -p ack -e 576 -c 2 -i 13 -a 2 -x {2.1 1.0 1609 ------- null}
h -t 3.59989 -s 2 -d 1 -p ack -e 576 -c 2 -i 13 -a 2 -x {2.1 1.0 -1 ------- null}
- -t 3.59998216 -s 2 -d 1 -p ack -e 576 -c 2 -i 14 -a 2 -x {2.1 1.0 2145 ------- null}
h -t 3.59998216 -s 2 -d 1 -p ack -e 576 -c 2 -i 14 -a 2 -x {2.1 1.0 -1 ------- null}
+ -t 3.6 -s 1 -d 0 -p ack -e 40 -c 2 -i 16 -a 2 -x {1.1 3.1 1 ------- null}
- -t 3.6 -s 1 -d 0 -p ack -e 40 -c 2 -i 16 -a 2 -x {1.1 3.1 1 ------- null}
h -t 3.6 -s 1 -d 0 -p ack -e 40 -c 2 -i 16 -a 2 -x {1.1 3.1 -1 ------- null}
- -t 3.60007432 -s 2 -d 1 -p ack -e 576 -c 2 -i 15 -a 2 -x {2.1 1.0 2681 ------- null}
h -t 3.60007432 -s 2 -d 1 -p ack -e 576 -c 2 -i 15 -a 2 -x {2.1 1.0 -1 ------- null}
r -t 3.60189 -s 2 -d 1 -p ack -e 576 -c 2 -i 12 -a 2 -x {2.1 1.0 1073 ------- null}
+ -t 3.60189 -s 1 -d 2 -p tcp -e 40 -c 2 -i 17 -a 2 -x {1.0 2.1 44 ------- null}
- -t 3.60189 -s 1 -d 2 -p tcp -e 40 -c 2 -i 17 -a 2 -x {1.0 2.1 44 ------- null}
h -t 3.60189 -s 1 -d 2 -p tcp -e 40 -c 2 -i 17 -a 2 -x {1.0 2.1 -1 ------- null}
r -t 3.60198216 -s 2 -d 1 -p ack -e 576 -c 2 -i 13 -a 2 -x {2.1 1.0 1609 ------- null}
+ -t 3.60198216 -s 1 -d 2 -p tcp -e 40 -c 2 -i 18 -a 2 -x {1.0 2.1 44 ------- null}
- -t 3.60198216 -s 1 -d 2 -p tcp -e 40 -c 2 -i 18 -a 2 -x {1.0 2.1 44 ------- null}
h -t 3.60198216 -s 1 -d 2 -p tcp -e 40 -c 2 -i 18 -a 2 -x {1.0 2.1 -1 ------- null}
r -t 3.602064 -s 1 -d 0 -p ack -e 40 -c 2 -i 16 -a 2 -x {1.1 3.1 1 ------- null}
+ -t 3.602064 -s 0 -d 3 -p ack -e 40 -c 2 -i 16 -a 2 -x {1.1 3.1 1 ------- null}
- -t 3.602064 -s 0 -d 3 -p ack -e 40 -c 2 -i 16 -a 2 -x {1.1 3.1 1 ------- null}
h -t 3.602064 -s 0 -d 3 -p ack -e 40 -c 2 -i 16 -a 2 -x {1.1 3.1 -1 ------- null}
r -t 3.60207432 -s 2 -d 1 -p ack -e 576 -c 2 -i 14 -a 2 -x {2.1 1.0 2145 ------- null}
+ -t 3.60207432 -s 1 -d 2 -p tcp -e 40 -c 2 -i 19 -a 2 -x {1.0 2.1 44 ------- null}
- -t 3.60207432 -s 1 -d 2 -p tcp -e 40 -c 2 -i 19 -a 2 -x {1.0 2.1 44 ------- null}
h -t 3.60207432 -s 1 -d 2 -p tcp -e 40 -c 2 -i 19 -a 2 -x {1.0 2.1 -1 ------- null}
r -t 3.60216648 -s 2 -d 1 -p ack -e 576 -c 2 -i 15 -a 2 -x {2.1 1.0 2681 ------- null}
+ -t 3.60216648 -s 1 -d 2 -p tcp -e 40 -c 2 -i 20 -a 2 -x {1.0 2.1 44 ------- null}
- -t 3.60216648 -s 1 -d 2 -p tcp -e 40 -c 2 -i 20 -a 2 -x {1.0 2.1 44 ------- null}
h -t 3.60216648 -s 1 -d 2 -p tcp -e 40 -c 2 -i 20 -a 2 -x {1.0 2.1 -1 ------- null}
r -t 3.6038964 -s 1 -d 2 -p tcp -e 40 -c 2 -i 17 -a 2 -x {1.0 2.1 44 ------- null}
+ -t 3.6038964 -s 2 -d 1 -p ack -e 576 -c 2 -i 21 -a 2 -x {2.1 1.0 3217 ------- null}
- -t 3.6038964 -s 2 -d 1 -p ack -e 576 -c 2 -i 21 -a 2 -x {2.1 1.0 3217 ------- null}
h -t 3.6038964 -s 2 -d 1 -p ack -e 576 -c 2 -i 21 -a 2 -x {2.1 1.0 -1 ------- null}
+ -t 3.6038964 -s 2 -d 1 -p ack -e 576 -c 2 -i 22 -a 2 -x {2.1 1.0 3753 ------- null}
r -t 3.60398856 -s 1 -d 2 -p tcp -e 40 -c 2 -i 18 -a 2 -x {1.0 2.1 44 ------- null}
+ -t 3.60398856 -s 2 -d 1 -p ack -e 576 -c 2 -i 23 -a 2 -x {2.1 1.0 4289 ------- null}
+ -t 3.60398856 -s 2 -d 1 -p ack -e 576 -c 2 -i 24 -a 2 -x {2.1 1.0 4825 ------- null}
- -t 3.60398856 -s 2 -d 1 -p ack -e 576 -c 2 -i 22 -a 2 -x {2.1 1.0 3753 ------- null}
h -t 3.60398856 -s 2 -d 1 -p ack -e 576 -c 2 -i 22 -a 2 -x {2.1 1.0 -1 ------- null}
r -t 3.60408072 -s 1 -d 2 -p tcp -e 40 -c 2 -i 19 -a 2 -x {1.0 2.1 44 ------- null}
+ -t 3.60408072 -s 2 -d 1 -p ack -e 576 -c 2 -i 25 -a 2 -x {2.1 1.0 5361 ------- null}
+ -t 3.60408072 -s 2 -d 1 -p ack -e 576 -c 2 -i 26 -a 2 -x {2.1 1.0 5897 ------- null}
- -t 3.60408072 -s 2 -d 1 -p ack -e 576 -c 2 -i 23 -a 2 -x {2.1 1.0 4289 ------- null}
h -t 3.60408072 -s 2 -d 1 -p ack -e 576 -c 2 -i 23 -a 2 -x {2.1 1.0 -1 ------- null}
r -t 3.60417288 -s 1 -d 2 -p tcp -e 40 -c 2 -i 20 -a 2 -x {1.0 2.1 44 ------- null}
+ -t 3.60417288 -s 2 -d 1 -p ack -e 576 -c 2 -i 27 -a 2 -x {2.1 1.0 6433 ------- null}
+ -t 3.60417288 -s 2 -d 1 -p ack -e 576 -c 2 -i 28 -a 2 -x {2.1 1.0 6969 ------- null}
- -t 3.60417288 -s 2 -d 1 -p ack -e 576 -c 2 -i 24 -a 2 -x {2.1 1.0 4825 ------- null}
h -t 3.60417288 -s 2 -d 1 -p ack -e 576 -c 2 -i 24 -a 2 -x {2.1 1.0 -1 ------- null}
- -t 3.60426504 -s 2 -d 1 -p ack -e 576 -c 2 -i 25 -a 2 -x {2.1 1.0 5361 ------- null}
h -t 3.60426504 -s 2 -d 1 -p ack -e 576 -c 2 -i 25 -a 2 -x {2.1 1.0 -1 ------- null}
- -t 3.6043572 -s 2 -d 1 -p ack -e 576 -c 2 -i 26 -a 2 -x {2.1 1.0 5897 ------- null}
h -t 3.6043572 -s 2 -d 1 -p ack -e 576 -c 2 -i 26 -a 2 -x {2.1 1.0 -1 ------- null}
- -t 3.60444936 -s 2 -d 1 -p ack -e 576 -c 2 -i 27 -a 2 -x {2.1 1.0 6433 ------- null}
h -t 3.60444936 -s 2 -d 1 -p ack -e 576 -c 2 -i 27 -a 2 -x {2.1 1.0 -1 ------- null}
- -t 3.60454152 -s 2 -d 1 -p ack -e 576 -c 2 -i 28 -a 2 -x {2.1 1.0 6969 ------- null}
h -t 3.60454152 -s 2 -d 1 -p ack -e 576 -c 2 -i 28 -a 2 -x {2.1 1.0 -1 ------- null}
r -t 3.604704 -s 0 -d 3 -p ack -e 40 -c 2 -i 16 -a 2 -x {1.1 3.1 1 ------- null}
r -t 3.60598856 -s 2 -d 1 -p ack -e 576 -c 2 -i 21 -a 2 -x {2.1 1.0 3217 ------- null}
+ -t 3.60598856 -s 1 -d 2 -p tcp -e 40 -c 2 -i 29 -a 2 -x {1.0 2.1 44 ------- null}
- -t 3.60598856 -s 1 -d 2 -p tcp -e 40 -c 2 -i 29 -a 2 -x {1.0 2.1 44 ------- null}
h -t 3.60598856 -s 1 -d 2 -p tcp -e 40 -c 2 -i 29 -a 2 -x {1.0 2.1 -1 ------- null}
r -t 3.60608072 -s 2 -d 1 -p ack -e 576 -c 2 -i 22 -a 2 -x {2.1 1.0 3753 ------- null}
+ -t 3.60608072 -s 1 -d 2 -p tcp -e 40 -c 2 -i 30 -a 2 -x {1.0 2.1 44 ------- null}
- -t 3.60608072 -s 1 -d 2 -p tcp -e 40 -c 2 -i 30 -a 2 -x {1.0 2.1 44 ------- null}
h -t 3.60608072 -s 1 -d 2 -p tcp -e 40 -c 2 -i 30 -a 2 -x {1.0 2.1 -1 ------- null}
r -t 3.60617288 -s 2 -d 1 -p ack -e 576 -c 2 -i 23 -a 2 -x {2.1 1.0 4289 ------- null}
+ -t 3.60617288 -s 1 -d 2 -p tcp -e 40 -c 2 -i 31 -a 2 -x {1.0 2.1 44 ------- null}
- -t 3.60617288 -s 1 -d 2 -p tcp -e 40 -c 2 -i 31 -a 2 -x {1.0 2.1 44 ------- null}
h -t 3.60617288 -s 1 -d 2 -p tcp -e 40 -c 2 -i 31 -a 2 -x {1.0 2.1 -1 ------- null}
r -t 3.60626504 -s 2 -d 1 -p ack -e 576 -c 2 -i 24 -a 2 -x {2.1 1.0 4825 ------- null}
+ -t 3.60626504 -s 1 -d 2 -p tcp -e 40 -c 2 -i 32 -a 2 -x {1.0 2.1 44 ------- null}
- -t 3.60626504 -s 1 -d 2 -p tcp -e 40 -c 2 -i 32 -a 2 -x {1.0 2.1 44 ------- null}
h -t 3.60626504 -s 1 -d 2 -p tcp -e 40 -c 2 -i 32 -a 2 -x {1.0 2.1 -1 ------- null}
r -t 3.6063572 -s 2 -d 1 -p ack -e 576 -c 2 -i 25 -a 2 -x {2.1 1.0 5361 ------- null}
+ -t 3.6063572 -s 1 -d 2 -p tcp -e 40 -c 2 -i 33 -a 2 -x {1.0 2.1 44 ------- null}
- -t 3.6063572 -s 1 -d 2 -p tcp -e 40 -c 2 -i 33 -a 2 -x {1.0 2.1 44 ------- null}
h -t 3.6063572 -s 1 -d 2 -p tcp -e 40 -c 2 -i 33 -a 2 -x {1.0 2.1 -1 ------- null}
r -t 3.60644936 -s 2 -d 1 -p ack -e 576 -c 2 -i 26 -a 2 -x {2.1 1.0 5897 ------- null}
+ -t 3.60644936 -s 1 -d 2 -p tcp -e 40 -c 2 -i 34 -a 2 -x {1.0 2.1 44 ------- null}
- -t 3.60644936 -s 1 -d 2 -p tcp -e 40 -c 2 -i 34 -a 2 -x {1.0 2.1 44 ------- null}
h -t 3.60644936 -s 1 -d 2 -p tcp -e 40 -c 2 -i 34 -a 2 -x {1.0 2.1 -1 ------- null}
r -t 3.60654152 -s 2 -d 1 -p ack -e 576 -c 2 -i 27 -a 2 -x {2.1 1.0 6433 ------- null}
+ -t 3.60654152 -s 1 -d 2 -p tcp -e 40 -c 2 -i 35 -a 2 -x {1.0 2.1 44 ------- null}
- -t 3.60654152 -s 1 -d 2 -p tcp -e 40 -c 2 -i 35 -a 2 -x {1.0 2.1 44 ------- null}
h -t 3.60654152 -s 1 -d 2 -p tcp -e 40 -c 2 -i 35 -a 2 -x {1.0 2.1 -1 ------- null}
r -t 3.60663368 -s 2 -d 1 -p ack -e 576 -c 2 -i 28 -a 2 -x {2.1 1.0 6969 ------- null}
+ -t 3.60663368 -s 1 -d 2 -p tcp -e 40 -c 2 -i 36 -a 2 -x {1.0 2.1 44 ------- null}
- -t 3.60663368 -s 1 -d 2 -p tcp -e 40 -c 2 -i 36 -a 2 -x {1.0 2.1 44 ------- null}
h -t 3.60663368 -s 1 -d 2 -p tcp -e 40 -c 2 -i 36 -a 2 -x {1.0 2.1 -1 ------- null}
r -t 3.60799496 -s 1 -d 2 -p tcp -e 40 -c 2 -i 29 -a 2 -x {1.0 2.1 44 ------- null}
+ -t 3.60799496 -s 2 -d 1 -p ack -e 576 -c 2 -i 37 -a 2 -x {2.1 1.0 7505 ------- null}
- -t 3.60799496 -s 2 -d 1 -p ack -e 576 -c 2 -i 37 -a 2 -x {2.1 1.0 7505 ------- null}
h -t 3.60799496 -s 2 -d 1 -p ack -e 576 -c 2 -i 37 -a 2 -x {2.1 1.0 -1 ------- null}
+ -t 3.60799496 -s 2 -d 1 -p ack -e 576 -c 2 -i 38 -a 2 -x {2.1 1.0 8041 ------- null}
r -t 3.60808712 -s 1 -d 2 -p tcp -e 40 -c 2 -i 30 -a 2 -x {1.0 2.1 44 ------- null}
+ -t 3.60808712 -s 2 -d 1 -p ack -e 576 -c 2 -i 39 -a 2 -x {2.1 1.0 8577 ------- null}
+ -t 3.60808712 -s 2 -d 1 -p ack -e 576 -c 2 -i 40 -a 2 -x {2.1 1.0 9113 ------- null}
- -t 3.60808712 -s 2 -d 1 -p ack -e 576 -c 2 -i 38 -a 2 -x {2.1 1.0 8041 ------- null}
h -t 3.60808712 -s 2 -d 1 -p ack -e 576 -c 2 -i 38 -a 2 -x {2.1 1.0 -1 ------- null}
r -t 3.60817928 -s 1 -d 2 -p tcp -e 40 -c 2 -i 31 -a 2 -x {1.0 2.1 44 ------- null}
+ -t 3.60817928 -s 2 -d 1 -p ack -e 576 -c 2 -i 41 -a 2 -x {2.1 1.0 9649 ------- null}
- -t 3.60817928 -s 2 -d 1 -p ack -e 576 -c 2 -i 39 -a 2 -x {2.1 1.0 8577 ------- null}
h -t 3.60817928 -s 2 -d 1 -p ack -e 576 -c 2 -i 39 -a 2 -x {2.1 1.0 -1 ------- null}
r -t 3.60827144 -s 1 -d 2 -p tcp -e 40 -c 2 -i 32 -a 2 -x {1.0 2.1 44 ------- null}
- -t 3.60827144 -s 2 -d 1 -p ack -e 576 -c 2 -i 40 -a 2 -x {2.1 1.0 9113 ------- null}
h -t 3.60827144 -s 2 -d 1 -p ack -e 576 -c 2 -i 40 -a 2 -x {2.1 1.0 -1 ------- null}
r -t 3.6083636 -s 1 -d 2 -p tcp -e 40 -c 2 -i 33 -a 2 -x {1.0 2.1 44 ------- null}
- -t 3.6083636 -s 2 -d 1 -p ack -e 576 -c 2 -i 41 -a 2 -x {2.1 1.0 9649 ------- null}
h -t 3.6083636 -s 2 -d 1 -p ack -e 576 -c 2 -i 41 -a 2 -x {2.1 1.0 -1 ------- null}
r -t 3.60845576 -s 1 -d 2 -p tcp -e 40 -c 2 -i 34 -a 2 -x {1.0 2.1 44 ------- null}
r -t 3.60854792 -s 1 -d 2 -p tcp -e 40 -c 2 -i 35 -a 2 -x {1.0 2.1 44 ------- null}
r -t 3.60864008 -s 1 -d 2 -p tcp -e 40 -c 2 -i 36 -a 2 -x {1.0 2.1 44 ------- null}
r -t 3.61008712 -s 2 -d 1 -p ack -e 576 -c 2 -i 37 -a 2 -x {2.1 1.0 7505 ------- null}
+ -t 3.61008712 -s 1 -d 2 -p tcp -e 40 -c 2 -i 42 -a 2 -x {1.0 2.1 44 ------- null}
- -t 3.61008712 -s 1 -d 2 -p tcp -e 40 -c 2 -i 42 -a 2 -x {1.0 2.1 44 ------- null}
h -t 3.61008712 -s 1 -d 2 -p tcp -e 40 -c 2 -i 42 -a 2 -x {1.0 2.1 -1 ------- null}
r -t 3.61017928 -s 2 -d 1 -p ack -e 576 -c 2 -i 38 -a 2 -x {2.1 1.0 8041 ------- null}
+ -t 3.61017928 -s 1 -d 2 -p tcp -e 40 -c 2 -i 43 -a 2 -x {1.0 2.1 44 ------- null}
- -t 3.61017928 -s 1 -d 2 -p tcp -e 40 -c 2 -i 43 -a 2 -x {1.0 2.1 44 ------- null}
h -t 3.61017928 -s 1 -d 2 -p tcp -e 40 -c 2 -i 43 -a 2 -x {1.0 2.1 -1 ------- null}
r -t 3.61027144 -s 2 -d 1 -p ack -e 576 -c 2 -i 39 -a 2 -x {2.1 1.0 8577 ------- null}
+ -t 3.61027144 -s 1 -d 2 -p tcp -e 40 -c 2 -i 44 -a 2 -x {1.0 2.1 44 ------- null}
- -t 3.61027144 -s 1 -d 2 -p tcp -e 40 -c 2 -i 44 -a 2 -x {1.0 2.1 44 ------- null}
h -t 3.61027144 -s 1 -d 2 -p tcp -e 40 -c 2 -i 44 -a 2 -x {1.0 2.1 -1 ------- null}
r -t 3.6103636 -s 2 -d 1 -p ack -e 576 -c 2 -i 40 -a 2 -x {2.1 1.0 9113 ------- null}
+ -t 3.6103636 -s 1 -d 2 -p tcp -e 40 -c 2 -i 45 -a 2 -x {1.0 2.1 44 ------- null}
- -t 3.6103636 -s 1 -d 2 -p tcp -e 40 -c 2 -i 45 -a 2 -x {1.0 2.1 44 ------- null}
h -t 3.6103636 -s 1 -d 2 -p tcp -e 40 -c 2 -i 45 -a 2 -x {1.0 2.1 -1 ------- null}
r -t 3.61045576 -s 2 -d 1 -p ack -e 576 -c 2 -i 41 -a 2 -x {2.1 1.0 9649 ------- null}
+ -t 3.61045576 -s 1 -d 2 -p tcp -e 40 -c 2 -i 46 -a 2 -x {1.0 2.1 44 ------- null}
- -t 3.61045576 -s 1 -d 2 -p tcp -e 40 -c 2 -i 46 -a 2 -x {1.0 2.1 44 ------- null}
h -t 3.61045576 -s 1 -d 2 -p tcp -e 40 -c 2 -i 46 -a 2 -x {1.0 2.1 -1 ------- null}
r -t 3.61209352 -s 1 -d 2 -p tcp -e 40 -c 2 -i 42 -a 2 -x {1.0 2.1 44 ------- null}
r -t 3.61218568 -s 1 -d 2 -p tcp -e 40 -c 2 -i 43 -a 2 -x {1.0 2.1 44 ------- null}
r -t 3.61227784 -s 1 -d 2 -p tcp -e 40 -c 2 -i 44 -a 2 -x {1.0 2.1 44 ------- null}
r -t 3.61237 -s 1 -d 2 -p tcp -e 40 -c 2 -i 45 -a 2 -x {1.0 2.1 44 ------- null}
r -t 3.61246216 -s 1 -d 2 -p tcp -e 40 -c 2 -i 46 -a 2 -x {1.0 2.1 44 ------- null}
+ -t 3.61246216 -s 2 -d 1 -p ack -e 96 -c 2 -i 47 -a 2 -x {2.1 1.0 10185 ------- null}
- -t 3.61246216 -s 2 -d 1 -p ack -e 96 -c 2 -i 47 -a 2 -x {2.1 1.0 10185 ------- null}
h -t 3.61246216 -s 2 -d 1 -p ack -e 96 -c 2 -i 47 -a 2 -x {2.1 1.0 -1 ------- null}
r -t 3.61447752 -s 2 -d 1 -p ack -e 96 -c 2 -i 47 -a 2 -x {2.1 1.0 10185 ------- null}
+ -t 3.61447752 -s 1 -d 0 -p ack -e 576 -c 2 -i 48 -a 2 -x {1.1 3.1 1 ------- null}
- -t 3.61447752 -s 1 -d 0 -p ack -e 576 -c 2 -i 48 -a 2 -x {1.1 3.1 1 ------- null}
h -t 3.61447752 -s 1 -d 0 -p ack -e 576 -c 2 -i 48 -a 2 -x {1.1 3.1 -1 ------- null}
+ -t 3.61447752 -s 1 -d 0 -p ack -e 576 -c 2 -i 49 -a 2 -x {1.1 3.1 537 ------- null}
n -t 3.61447752 -s 1 -S COLOR -c blue -o yellow -i blue -I yellow
- -t 3.61539912 -s 1 -d 0 -p ack -e 576 -c 2 -i 49 -a 2 -x {1.1 3.1 537 ------- null}
h -t 3.61539912 -s 1 -d 0 -p ack -e 576 -c 2 -i 49 -a 2 -x {1.1 3.1 -1 ------- null}
r -t 3.61739912 -s 1 -d 0 -p ack -e 576 -c 2 -i 48 -a 2 -x {1.1 3.1 1 ------- null}
+ -t 3.61739912 -s 0 -d 3 -p ack -e 576 -c 2 -i 48 -a 2 -x {1.1 3.1 1 ------- null}
- -t 3.61739912 -s 0 -d 3 -p ack -e 576 -c 2 -i 48 -a 2 -x {1.1 3.1 1 ------- null}
h -t 3.61739912 -s 0 -d 3 -p ack -e 576 -c 2 -i 48 -a 2 -x {1.1 3.1 -1 ------- null}
r -t 3.61832072 -s 1 -d 0 -p ack -e 576 -c 2 -i 49 -a 2 -x {1.1 3.1 537 ------- null}
+ -t 3.61832072 -s 0 -d 3 -p ack -e 576 -c 2 -i 49 -a 2 -x {1.1 3.1 537 ------- null}
- -t 3.62661512 -s 0 -d 3 -p ack -e 576 -c 2 -i 49 -a 2 -x {1.1 3.1 537 ------- null}
h -t 3.62661512 -s 0 -d 3 -p ack -e 576 -c 2 -i 49 -a 2 -x {1.1 3.1 -1 ------- null}
r -t 3.62861512 -s 0 -d 3 -p ack -e 576 -c 2 -i 48 -a 2 -x {1.1 3.1 1 ------- null}
+ -t 3.62861512 -s 3 -d 0 -p tcp -e 40 -c 2 -i 50 -a 2 -x {3.1 1.1 44 ------- null}
- -t 3.62861512 -s 3 -d 0 -p tcp -e 40 -c 2 -i 50 -a 2 -x {3.1 1.1 44 ------- null}
h -t 3.62861512 -s 3 -d 0 -p tcp -e 40 -c 2 -i 50 -a 2 -x {3.1 1.1 -1 ------- null}
r -t 3.63125512 -s 3 -d 0 -p tcp -e 40 -c 2 -i 50 -a 2 -x {3.1 1.1 44 ------- null}
+ -t 3.63125512 -s 0 -d 1 -p tcp -e 40 -c 2 -i 50 -a 2 -x {3.1 1.1 44 ------- null}
- -t 3.63125512 -s 0 -d 1 -p tcp -e 40 -c 2 -i 50 -a 2 -x {3.1 1.1 44 ------- null}
h -t 3.63125512 -s 0 -d 1 -p tcp -e 40 -c 2 -i 50 -a 2 -x {3.1 1.1 -1 ------- null}
r -t 3.63331912 -s 0 -d 1 -p tcp -e 40 -c 2 -i 50 -a 2 -x {3.1 1.1 44 ------- null}
+ -t 3.63331912 -s 1 -d 0 -p ack -e 576 -c 2 -i 51 -a 2 -x {1.1 3.1 1073 ------- null}
- -t 3.63331912 -s 1 -d 0 -p ack -e 576 -c 2 -i 51 -a 2 -x {1.1 3.1 1073 ------- null}
h -t 3.63331912 -s 1 -d 0 -p ack -e 576 -c 2 -i 51 -a 2 -x {1.1 3.1 -1 ------- null}
+ -t 3.63331912 -s 1 -d 0 -p ack -e 576 -c 2 -i 52 -a 2 -x {1.1 3.1 1609 ------- null}
- -t 3.63424072 -s 1 -d 0 -p ack -e 576 -c 2 -i 52 -a 2 -x {1.1 3.1 1609 ------- null}
h -t 3.63424072 -s 1 -d 0 -p ack -e 576 -c 2 -i 52 -a 2 -x {1.1 3.1 -1 ------- null}
r -t 3.63624072 -s 1 -d 0 -p ack -e 576 -c 2 -i 51 -a 2 -x {1.1 3.1 1073 ------- null}
+ -t 3.63624072 -s 0 -d 3 -p ack -e 576 -c 2 -i 51 -a 2 -x {1.1 3.1 1073 ------- null}
- -t 3.63624072 -s 0 -d 3 -p ack -e 576 -c 2 -i 51 -a 2 -x {1.1 3.1 1073 ------- null}
h -t 3.63624072 -s 0 -d 3 -p ack -e 576 -c 2 -i 51 -a 2 -x {1.1 3.1 -1 ------- null}
r -t 3.63716232 -s 1 -d 0 -p ack -e 576 -c 2 -i 52 -a 2 -x {1.1 3.1 1609 ------- null}
+ -t 3.63716232 -s 0 -d 3 -p ack -e 576 -c 2 -i 52 -a 2 -x {1.1 3.1 1609 ------- null}
r -t 3.63783112 -s 0 -d 3 -p ack -e 576 -c 2 -i 49 -a 2 -x {1.1 3.1 537 ------- null}
+ -t 3.63783112 -s 3 -d 0 -p tcp -e 40 -c 2 -i 53 -a 2 -x {3.1 1.1 44 ------- null}
- -t 3.63783112 -s 3 -d 0 -p tcp -e 40 -c 2 -i 53 -a 2 -x {3.1 1.1 44 ------- null}
h -t 3.63783112 -s 3 -d 0 -p tcp -e 40 -c 2 -i 53 -a 2 -x {3.1 1.1 -1 ------- null}
r -t 3.64047112 -s 3 -d 0 -p tcp -e 40 -c 2 -i 53 -a 2 -x {3.1 1.1 44 ------- null}
+ -t 3.64047112 -s 0 -d 1 -p tcp -e 40 -c 2 -i 53 -a 2 -x {3.1 1.1 44 ------- null}
- -t 3.64047112 -s 0 -d 1 -p tcp -e 40 -c 2 -i 53 -a 2 -x {3.1 1.1 44 ------- null}
h -t 3.64047112 -s 0 -d 1 -p tcp -e 40 -c 2 -i 53 -a 2 -x {3.1 1.1 -1 ------- null}
r -t 3.64253512 -s 0 -d 1 -p tcp -e 40 -c 2 -i 53 -a 2 -x {3.1 1.1 44 ------- null}
+ -t 3.64253512 -s 1 -d 0 -p ack -e 576 -c 2 -i 54 -a 2 -x {1.1 3.1 2145 ------- null}
- -t 3.64253512 -s 1 -d 0 -p ack -e 576 -c 2 -i 54 -a 2 -x {1.1 3.1 2145 ------- null}
h -t 3.64253512 -s 1 -d 0 -p ack -e 576 -c 2 -i 54 -a 2 -x {1.1 3.1 -1 ------- null}
+ -t 3.64253512 -s 1 -d 0 -p ack -e 576 -c 2 -i 55 -a 2 -x {1.1 3.1 2681 ------- null}
- -t 3.64345672 -s 1 -d 0 -p ack -e 576 -c 2 -i 55 -a 2 -x {1.1 3.1 2681 ------- null}
h -t 3.64345672 -s 1 -d 0 -p ack -e 576 -c 2 -i 55 -a 2 -x {1.1 3.1 -1 ------- null}
- -t 3.64545672 -s 0 -d 3 -p ack -e 576 -c 2 -i 52 -a 2 -x {1.1 3.1 1609 ------- null}
h -t 3.64545672 -s 0 -d 3 -p ack -e 576 -c 2 -i 52 -a 2 -x {1.1 3.1 -1 ------- null}
r -t 3.64545672 -s 1 -d 0 -p ack -e 576 -c 2 -i 54 -a 2 -x {1.1 3.1 2145 ------- null}
+ -t 3.64545672 -s 0 -d 3 -p ack -e 576 -c 2 -i 54 -a 2 -x {1.1 3.1 2145 ------- null}
r -t 3.64637832 -s 1 -d 0 -p ack -e 576 -c 2 -i 55 -a 2 -x {1.1 3.1 2681 ------- null}
+ -t 3.64637832 -s 0 -d 3 -p ack -e 576 -c 2 -i 55 -a 2 -x {1.1 3.1 2681 ------- null}
r -t 3.64745672 -s 0 -d 3 -p ack -e 576 -c 2 -i 51 -a 2 -x {1.1 3.1 1073 ------- null}
+ -t 3.64745672 -s 3 -d 0 -p tcp -e 40 -c 2 -i 56 -a 2 -x {3.1 1.1 44 ------- null}
- -t 3.64745672 -s 3 -d 0 -p tcp -e 40 -c 2 -i 56 -a 2 -x {3.1 1.1 44 ------- null}
h -t 3.64745672 -s 3 -d 0 -p tcp -e 40 -c 2 -i 56 -a 2 -x {3.1 1.1 -1 ------- null}
r -t 3.65009672 -s 3 -d 0 -p tcp -e 40 -c 2 -i 56 -a 2 -x {3.1 1.1 44 ------- null}
+ -t 3.65009672 -s 0 -d 1 -p tcp -e 40 -c 2 -i 56 -a 2 -x {3.1 1.1 44 ------- null}
- -t 3.65009672 -s 0 -d 1 -p tcp -e 40 -c 2 -i 56 -a 2 -x {3.1 1.1 44 ------- null}
h -t 3.65009672 -s 0 -d 1 -p tcp -e 40 -c 2 -i 56 -a 2 -x {3.1 1.1 -1 ------- null}
r -t 3.65216072 -s 0 -d 1 -p tcp -e 40 -c 2 -i 56 -a 2 -x {3.1 1.1 44 ------- null}
+ -t 3.65216072 -s 1 -d 0 -p ack -e 576 -c 2 -i 57 -a 2 -x {1.1 3.1 3217 ------- null}
- -t 3.65216072 -s 1 -d 0 -p ack -e 576 -c 2 -i 57 -a 2 -x {1.1 3.1 3217 ------- null}
h -t 3.65216072 -s 1 -d 0 -p ack -e 576 -c 2 -i 57 -a 2 -x {1.1 3.1 -1 ------- null}
+ -t 3.65216072 -s 1 -d 0 -p ack -e 576 -c 2 -i 58 -a 2 -x {1.1 3.1 3753 ------- null}
- -t 3.65308232 -s 1 -d 0 -p ack -e 576 -c 2 -i 58 -a 2 -x {1.1 3.1 3753 ------- null}
h -t 3.65308232 -s 1 -d 0 -p ack -e 576 -c 2 -i 58 -a 2 -x {1.1 3.1 -1 ------- null}
- -t 3.65467272 -s 0 -d 3 -p ack -e 576 -c 2 -i 54 -a 2 -x {1.1 3.1 2145 ------- null}
h -t 3.65467272 -s 0 -d 3 -p ack -e 576 -c 2 -i 54 -a 2 -x {1.1 3.1 -1 ------- null}
r -t 3.65508232 -s 1 -d 0 -p ack -e 576 -c 2 -i 57 -a 2 -x {1.1 3.1 3217 ------- null}
+ -t 3.65508232 -s 0 -d 3 -p ack -e 576 -c 2 -i 57 -a 2 -x {1.1 3.1 3217 ------- null}
r -t 3.65600392 -s 1 -d 0 -p ack -e 576 -c 2 -i 58 -a 2 -x {1.1 3.1 3753 ------- null}
+ -t 3.65600392 -s 0 -d 3 -p ack -e 576 -c 2 -i 58 -a 2 -x {1.1 3.1 3753 ------- null}
r -t 3.65667272 -s 0 -d 3 -p ack -e 576 -c 2 -i 52 -a 2 -x {1.1 3.1 1609 ------- null}
+ -t 3.65667272 -s 3 -d 0 -p tcp -e 40 -c 2 -i 59 -a 2 -x {3.1 1.1 44 ------- null}
- -t 3.65667272 -s 3 -d 0 -p tcp -e 40 -c 2 -i 59 -a 2 -x {3.1 1.1 44 ------- null}
h -t 3.65667272 -s 3 -d 0 -p tcp -e 40 -c 2 -i 59 -a 2 -x {3.1 1.1 -1 ------- null}
r -t 3.65931272 -s 3 -d 0 -p tcp -e 40 -c 2 -i 59 -a 2 -x {3.1 1.1 44 ------- null}
+ -t 3.65931272 -s 0 -d 1 -p tcp -e 40 -c 2 -i 59 -a 2 -x {3.1 1.1 44 ------- null}
- -t 3.65931272 -s 0 -d 1 -p tcp -e 40 -c 2 -i 59 -a 2 -x {3.1 1.1 44 ------- null}
h -t 3.65931272 -s 0 -d 1 -p tcp -e 40 -c 2 -i 59 -a 2 -x {3.1 1.1 -1 ------- null}
r -t 3.66137672 -s 0 -d 1 -p tcp -e 40 -c 2 -i 59 -a 2 -x {3.1 1.1 44 ------- null}
+ -t 3.66137672 -s 1 -d 0 -p ack -e 576 -c 2 -i 60 -a 2 -x {1.1 3.1 4289 ------- null}
- -t 3.66137672 -s 1 -d 0 -p ack -e 576 -c 2 -i 60 -a 2 -x {1.1 3.1 4289 ------- null}
h -t 3.66137672 -s 1 -d 0 -p ack -e 576 -c 2 -i 60 -a 2 -x {1.1 3.1 -1 ------- null}
+ -t 3.66137672 -s 1 -d 0 -p ack -e 576 -c 2 -i 61 -a 2 -x {1.1 3.1 4825 ------- null}
- -t 3.66229832 -s 1 -d 0 -p ack -e 576 -c 2 -i 61 -a 2 -x {1.1 3.1 4825 ------- null}
h -t 3.66229832 -s 1 -d 0 -p ack -e 576 -c 2 -i 61 -a 2 -x {1.1 3.1 -1 ------- null}
- -t 3.66388872 -s 0 -d 3 -p ack -e 576 -c 2 -i 55 -a 2 -x {1.1 3.1 2681 ------- null}
h -t 3.66388872 -s 0 -d 3 -p ack -e 576 -c 2 -i 55 -a 2 -x {1.1 3.1 -1 ------- null}
r -t 3.66429832 -s 1 -d 0 -p ack -e 576 -c 2 -i 60 -a 2 -x {1.1 3.1 4289 ------- null}
+ -t 3.66429832 -s 0 -d 3 -p ack -e 576 -c 2 -i 60 -a 2 -x {1.1 3.1 4289 ------- null}
r -t 3.66521992 -s 1 -d 0 -p ack -e 576 -c 2 -i 61 -a 2 -x {1.1 3.1 4825 ------- null}
+ -t 3.66521992 -s 0 -d 3 -p ack -e 576 -c 2 -i 61 -a 2 -x {1.1 3.1 4825 ------- null}
r -t 3.66588872 -s 0 -d 3 -p ack -e 576 -c 2 -i 54 -a 2 -x {1.1 3.1 2145 ------- null}
+ -t 3.66588872 -s 3 -d 0 -p tcp -e 40 -c 2 -i 62 -a 2 -x {3.1 1.1 44 ------- null}
- -t 3.66588872 -s 3 -d 0 -p tcp -e 40 -c 2 -i 62 -a 2 -x {3.1 1.1 44 ------- null}
h -t 3.66588872 -s 3 -d 0 -p tcp -e 40 -c 2 -i 62 -a 2 -x {3.1 1.1 -1 ------- null}
r -t 3.66852872 -s 3 -d 0 -p tcp -e 40 -c 2 -i 62 -a 2 -x {3.1 1.1 44 ------- null}
+ -t 3.66852872 -s 0 -d 1 -p tcp -e 40 -c 2 -i 62 -a 2 -x {3.1 1.1 44 ------- null}
- -t 3.66852872 -s 0 -d 1 -p tcp -e 40 -c 2 -i 62 -a 2 -x {3.1 1.1 44 ------- null}
h -t 3.66852872 -s 0 -d 1 -p tcp -e 40 -c 2 -i 62 -a 2 -x {3.1 1.1 -1 ------- null}
r -t 3.67059272 -s 0 -d 1 -p tcp -e 40 -c 2 -i 62 -a 2 -x {3.1 1.1 44 ------- null}
+ -t 3.67059272 -s 1 -d 0 -p ack -e 576 -c 2 -i 63 -a 2 -x {1.1 3.1 5361 ------- null}
- -t 3.67059272 -s 1 -d 0 -p ack -e 576 -c 2 -i 63 -a 2 -x {1.1 3.1 5361 ------- null}
h -t 3.67059272 -s 1 -d 0 -p ack -e 576 -c 2 -i 63 -a 2 -x {1.1 3.1 -1 ------- null}
+ -t 3.67059272 -s 1 -d 0 -p ack -e 576 -c 2 -i 64 -a 2 -x {1.1 3.1 5897 ------- null}
- -t 3.67151432 -s 1 -d 0 -p ack -e 576 -c 2 -i 64 -a 2 -x {1.1 3.1 5897 ------- null}
h -t 3.67151432 -s 1 -d 0 -p ack -e 576 -c 2 -i 64 -a 2 -x {1.1 3.1 -1 ------- null}
- -t 3.67310472 -s 0 -d 3 -p ack -e 576 -c 2 -i 57 -a 2 -x {1.1 3.1 3217 ------- null}
h -t 3.67310472 -s 0 -d 3 -p ack -e 576 -c 2 -i 57 -a 2 -x {1.1 3.1 -1 ------- null}
r -t 3.67351432 -s 1 -d 0 -p ack -e 576 -c 2 -i 63 -a 2 -x {1.1 3.1 5361 ------- null}
+ -t 3.67351432 -s 0 -d 3 -p ack -e 576 -c 2 -i 63 -a 2 -x {1.1 3.1 5361 ------- null}
r -t 3.67443592 -s 1 -d 0 -p ack -e 576 -c 2 -i 64 -a 2 -x {1.1 3.1 5897 ------- null}
+ -t 3.67443592 -s 0 -d 3 -p ack -e 576 -c 2 -i 64 -a 2 -x {1.1 3.1 5897 ------- null}
r -t 3.67510472 -s 0 -d 3 -p ack -e 576 -c 2 -i 55 -a 2 -x {1.1 3.1 2681 ------- null}
+ -t 3.67510472 -s 3 -d 0 -p tcp -e 40 -c 2 -i 65 -a 2 -x {3.1 1.1 44 ------- null}
- -t 3.67510472 -s 3 -d 0 -p tcp -e 40 -c 2 -i 65 -a 2 -x {3.1 1.1 44 ------- null}
h -t 3.67510472 -s 3 -d 0 -p tcp -e 40 -c 2 -i 65 -a 2 -x {3.1 1.1 -1 ------- null}
r -t 3.67774472 -s 3 -d 0 -p tcp -e 40 -c 2 -i 65 -a 2 -x {3.1 1.1 44 ------- null}
+ -t 3.67774472 -s 0 -d 1 -p tcp -e 40 -c 2 -i 65 -a 2 -x {3.1 1.1 44 ------- null}
- -t 3.67774472 -s 0 -d 1 -p tcp -e 40 -c 2 -i 65 -a 2 -x {3.1 1.1 44 ------- null}
h -t 3.67774472 -s 0 -d 1 -p tcp -e 40 -c 2 -i 65 -a 2 -x {3.1 1.1 -1 ------- null}
r -t 3.67980872 -s 0 -d 1 -p tcp -e 40 -c 2 -i 65 -a 2 -x {3.1 1.1 44 ------- null}
+ -t 3.67980872 -s 1 -d 0 -p ack -e 576 -c 2 -i 66 -a 2 -x {1.1 3.1 6433 ------- null}
- -t 3.67980872 -s 1 -d 0 -p ack -e 576 -c 2 -i 66 -a 2 -x {1.1 3.1 6433 ------- null}
h -t 3.67980872 -s 1 -d 0 -p ack -e 576 -c 2 -i 66 -a 2 -x {1.1 3.1 -1 ------- null}
+ -t 3.67980872 -s 1 -d 0 -p ack -e 576 -c 2 -i 67 -a 2 -x {1.1 3.1 6969 ------- null}
- -t 3.68073032 -s 1 -d 0 -p ack -e 576 -c 2 -i 67 -a 2 -x {1.1 3.1 6969 ------- null}
h -t 3.68073032 -s 1 -d 0 -p ack -e 576 -c 2 -i 67 -a 2 -x {1.1 3.1 -1 ------- null}
- -t 3.68232072 -s 0 -d 3 -p ack -e 576 -c 2 -i 58 -a 2 -x {1.1 3.1 3753 ------- null}
h -t 3.68232072 -s 0 -d 3 -p ack -e 576 -c 2 -i 58 -a 2 -x {1.1 3.1 -1 ------- null}